42
Properties=species:S:1:pos:R:3:displacements:R:3 timestep=2.0 pbc="F F F"
H        2.04866000       3.03970000      -1.90538000      -0.02621000      -0.01900000       0.01435000
H        2.57508000       1.72268000      -0.85631500      -0.03337000       0.01367000       0.02545700
H        2.17184000       3.30896000      -0.15238200      -0.00444000      -0.01798000       0.02163900
C        1.90655000       2.58401000      -0.92348000       0.01876000      -0.01531000       0.01989300
O        0.03771400       1.25465000      -1.59488000       0.00426690       0.00627000      -0.00018000
C        0.48396700       2.10062000      -0.82751300      -0.00816500       0.00851000      -0.00786000
N       -0.28972800       2.66225000       0.13607100       0.00719900      -0.02293000      -0.00169800
H        0.16103700       3.23064000       0.83232600       0.02690300       0.01706000      -0.02459500
C       -1.66536000       2.24227000       0.38856700       0.00503000       0.02510000      -0.00864700
H       -1.98080000       2.78577000       1.28200000      -0.01826000       0.01546000      -0.01802000
C       -2.60093000       2.60713000      -0.76094600       0.01788000      -0.00057000       0.02438800
C       -1.65737000       0.76935300       0.84076700      -0.01227000       0.01434800      -0.03277000
O       -1.07671000       0.46484900       1.87157000      -0.00735000       0.00078300       0.00649000
H       -3.62795000       2.31590000      -0.52731400      -0.04638000      -0.06989000      -0.01358800
H       -2.58345000       3.68786000      -0.91203300      -0.07995000      -0.03473000       0.03942600
H       -2.28934000       2.13627000      -1.69468000       0.02029000       0.03128000       0.02244000
N       -2.28796000      -0.13783200       0.06597500      -0.00699000       0.01139500      -0.01603840
H       -2.61433000       0.15084400      -0.84271100      -0.02919000       0.00597900      -0.05318100
C       -2.21633000      -1.56248000       0.35525800      -0.00136000       0.01163000      -0.02106900
H       -2.49106000      -1.71026000       1.40128000       0.03253000      -0.11909000      -0.01300000
C       -3.17539000      -2.32986000      -0.54719400      -0.01414000       0.01105000       0.01419900
C       -0.79661200      -2.15180000       0.24417300       0.01689500      -0.00262000      -0.01542000
O       -0.54538500      -3.20721000       0.79546200      -0.00637600      -0.00305000       0.00936500
H       -3.09773000      -3.39555000      -0.33182000      -0.04978000      -0.00767000       0.01399900
H       -4.20586000      -2.01059000      -0.37590300       0.05705000      -0.04281000       0.01387400
H       -2.92852000      -2.17659000      -1.60274000      -0.00053000      -0.00647000      -0.01037000
N        0.08518600      -1.43854000      -0.48961600      -0.00884660      -0.02655000       0.00095900
H       -0.20393600      -0.57022000      -0.92587000      -0.01040400      -0.02813100      -0.04748800
C        1.49370000      -1.76346000      -0.59747700      -0.01474000      -0.00378000       0.00353500
H        1.62352000      -2.74612000      -0.13439600       0.04106000       0.04131000       0.05090510
C        1.93595000      -1.80971000      -2.05523000      -0.00531000      -0.00237000      -0.00299000
C        2.37375000      -0.79291000       0.21284200      -0.00088000      -0.00211300       0.01121100
O        3.55545000      -0.63911100      -0.05660100       0.02285000       0.01648400      -0.00396680
H        3.00626000      -2.00417000      -2.11517000       0.00121000      -0.04646000       0.02360000
H        1.39238000      -2.59759000      -2.58040000       0.00693000      -0.04555000       0.01364000
H        1.73079000      -0.85338400      -2.54426000      -0.04443000      -0.02816600       0.01157000
N        1.77244000      -0.14321700       1.23186000       0.01528000      -0.00510500      -0.00386000
H        0.79538700      -0.29827700       1.43700000       0.02923500       0.04294000      -0.02494000
C        2.52442000       0.70798900       2.12658000      -0.01481000       0.00199900       0.00947000
H        3.17617000       0.12474300       2.78380000       0.02537000       0.09163100       0.06329000
H        3.15630000       1.39339000       1.55717000      -0.03893000      -0.00125000       0.07114000
H        1.81944000       1.27508000       2.73527000      -0.00751000      -0.06400000      -0.00705000
42
Properties=species:S:1:pos:R:3:displacements:R:3 timestep=2.0 pbc="F F F"
H        2.03480000       3.02967000      -1.89730000      -0.02197000      -0.01680000       0.01110000
H        2.55448000       1.73455000      -0.84397300      -0.01276000      -0.01317000       0.02750700
H        2.16899000       3.29891000      -0.14257700      -0.00145000      -0.01333000       0.02590400
C        1.91628000       2.57611000      -0.91361700       0.01679000      -0.01387000       0.02022000
O        0.03996030       1.25800000      -1.59470000       0.00376570       0.00531000      -0.00143000
C        0.47962700       2.10471000      -0.83155400      -0.00683100       0.00913000      -0.00738000
N       -0.28619600       2.65069000       0.13506600       0.00761200      -0.02227000      -0.00077400
H        0.17483100       3.23916000       0.82029800       0.02362300       0.01527000      -0.02765100
C       -1.66284000       2.25487000       0.38428200       0.00504000       0.02472000      -0.00857700
H       -1.98989000       2.79262000       1.27150000      -0.01753000       0.01908000      -0.01137000
C       -2.59155000       2.60717000      -0.74893500       0.01539000      -0.00220000       0.02502200
C       -1.66358000       0.77643000       0.82427100      -0.01160000       0.01467400      -0.03161000
O       -1.08031000       0.46520800       1.87485000      -0.00799000       0.00108700       0.00578000
H       -3.65541000       2.28027000      -0.53367100      -0.02245000      -0.06564000      -0.01552700
H       -2.62303000       3.66607000      -0.89187600      -0.08203000      -0.01284000       0.03739000
H       -2.28003000       2.15254000      -1.68176000       0.02433000       0.02872000       0.01452000
N       -2.29125000      -0.13218900       0.05830840      -0.00804000       0.01168200      -0.01789070
H       -2.62958000       0.15456600      -0.87174500      -0.02480000       0.00162200      -0.03823400
C       -2.21705000      -1.55658000       0.34477100      -0.00110000       0.01101000      -0.02102100
H       -2.47489000      -1.77103000       1.39504000       0.03329000      -0.11063000      -0.01677000
C       -3.18311000      -2.32409000      -0.53986900      -0.01050000       0.00959000       0.01280000
C       -0.78791300      -2.15311000       0.23648000       0.01536500      -0.00305000      -0.01518300
O       -0.54859000      -3.20851000       0.79997400      -0.00634800      -0.00385000       0.01005000
H       -3.12313000      -3.39974000      -0.32490300      -0.04656000      -0.00416000       0.01414800
H       -4.16810000      -2.03520000      -0.37046000       0.00650000      -0.02514000       0.02211200
H       -2.92817000      -2.17954000      -1.60881000      -0.00454000      -0.00810000      -0.00430000
N        0.08064170      -1.45190000      -0.48891900      -0.00808850      -0.02581000      -0.00035300
H       -0.20917400      -0.58392300      -0.94987700      -0.00966800      -0.03262700      -0.04460800
C        1.48628000      -1.76548000      -0.59567500      -0.01430000      -0.00320000       0.00343800
H        1.64418000      -2.72304000      -0.10969200       0.03994000       0.03019000       0.05343880
C        1.93332000      -1.81054000      -2.05685000      -0.00540000      -0.00437000      -0.00231000
C        2.37312000      -0.79396900       0.21860500       0.00059000      -0.00199400       0.01016700
O        3.56674000      -0.63093600      -0.05855810       0.02303000       0.01672600      -0.00398090
H        3.00702000      -2.02798000      -2.10327000      -0.00128000      -0.04243000       0.02284000
H        1.39574000      -2.62064000      -2.57375000       0.00803000      -0.04255000       0.01522000
H        1.70884000      -0.86966200      -2.53697000      -0.04529000      -0.01753600       0.00395000
N        1.77972000      -0.14582300       1.22983000       0.01695000      -0.00485300      -0.00322000
H        0.81547600      -0.27613900       1.42364000       0.00390100       0.03981100      -0.02107000
C        2.51702000       0.70939000       2.13120000      -0.01466000      -0.00012600       0.01016000
H        3.18885000       0.17137400       2.81542000       0.02367000       0.08723900       0.06150000
H        3.13393000       1.38893000       1.59566000      -0.02415000       0.01925000       0.05558000
H        1.81983000       1.24024000       2.72867000      -0.02953000      -0.04924000       0.00882000
42
Properties=species:S:1:pos:R:3:displacements:R:3 timestep=2.0 pbc="F F F"
H        2.02245000       3.02070000      -1.89103000      -0.01557000      -0.01506000       0.00932000
H        2.54171000       1.73635000      -0.83085800       0.01286000      -0.04749000       0.03060300
H        2.16740000       3.29098000      -0.13074300       0.00233000      -0.00877000       0.03050400
C        1.92531000       2.56870000      -0.90358700       0.01443000      -0.01225000       0.02098300
O        0.04198090       1.26092000      -1.59506000       0.00324320       0.00428000      -0.00307000
C        0.47580200       2.10913000      -0.83537300      -0.00501300       0.00980000      -0.00700700
N       -0.28252900       2.63932000       0.13437300       0.00842100      -0.02151000       0.00069200
H        0.18794000       3.24770000       0.80773100       0.01755800       0.01090000      -0.03413100
C       -1.66033000       2.26737000       0.37992000       0.00523000       0.02449000      -0.00810300
H       -1.99906000       2.80123000       1.26398000      -0.01502000       0.02280000      -0.00429000
C       -2.58305000       2.60656000      -0.73655800       0.01191000      -0.00411000       0.02566400
C       -1.66964000       0.78370100       0.80799700      -0.01050000       0.01516500      -0.02970200
O       -1.08406000       0.46563200       1.87806000      -0.00945000       0.00174800       0.00411000
H       -3.67433000       2.24601000      -0.54090200       0.01208000      -0.06036000      -0.01748600
H       -2.66340000       3.65313000      -0.87260700      -0.08634000       0.01212000       0.03618800
H       -2.26905000       2.16755000      -1.67224000       0.02983000       0.02745000       0.00591000
N       -2.29495000      -0.12643700       0.04993660      -0.00961000       0.01227100      -0.02075640
H       -2.64352000       0.15682300      -0.89589200      -0.01851000      -0.00454000      -0.01683800
C       -2.21769000      -1.55085000       0.33418900      -0.00065000       0.01002000      -0.02093200
H       -2.45853000      -1.82935000       1.38828000       0.03524000      -0.09698000      -0.02575000
C       -3.18953000      -2.31881000      -0.53299500      -0.00622000       0.00773000       0.01093000
C       -0.77971700      -2.15442000       0.22875300       0.01301600      -0.00450000      -0.01457000
O       -0.55176100      -3.21026000       0.80482700      -0.00652800      -0.00454000       0.01093800
H       -3.14751000      -3.40322000      -0.31782100      -0.04191000       0.00277000       0.01441800
H       -4.14881000      -2.05340000      -0.36202900      -0.05712000      -0.00236000       0.03287900
H       -2.92905000      -2.18306000      -1.61311000      -0.01154000      -0.01065000       0.00549000
N        0.07633940      -1.46509000      -0.48865700      -0.00686270      -0.02485000      -0.00257500
H       -0.21434000      -0.59835100      -0.97335800      -0.00830700      -0.04257300      -0.03953200
C        1.47896000      -1.76724000      -0.59394200      -0.01355000      -0.00272000       0.00356400
H        1.66458000      -2.70481000      -0.08349090       0.03793000       0.01847000       0.05512260
C        1.93064000      -1.81208000      -2.05822000      -0.00565000      -0.00739000      -0.00137000
C        2.37287000      -0.79502300       0.22405300       0.00345000      -0.00170300       0.00847500
O        3.57830000      -0.62262700      -0.06056780       0.02297000       0.01724800      -0.00390540
H        3.00747000      -2.05063000      -2.09157000      -0.00693000      -0.03577000       0.02169000
H        1.39931000      -2.64314000      -2.56676000       0.01027000      -0.03704000       0.01854000
H        1.68636000      -0.88155000      -2.53269000      -0.04606000      -0.00578700      -0.00565000
N        1.78772000      -0.14832200       1.22800000       0.01892000      -0.00466200      -0.00208000
H        0.82462200      -0.25533700       1.41206000      -0.02161700       0.03727400      -0.01825000
C        2.50961000       0.70998800       2.13605000      -0.01448000      -0.00265400       0.01164000
H        3.20154000       0.21637400       2.84709000       0.01885000       0.08220300       0.05698000
H        3.11737000       1.39214000       1.62831000      -0.00737000       0.04647000       0.03658000
H        1.81193000       1.21108000       2.72822000      -0.05856000      -0.03190000       0.02825000
42
Properties=species:S:1:pos:R:3:displacements:R:3 timestep=2.0 pbc="F F F"
H        2.01283000       3.01287000      -1.88620000      -0.00653000      -0.01386000       0.00961000
H        2.54172000       1.72138000      -0.81646600       0.03263000      -0.07342000       0.03255400
H        2.16754000       3.28558000      -0.11667300       0.00643000      -0.00544000       0.03315620
C        1.93307000       2.56224000      -0.89339700       0.01215000      -0.01105000       0.02159800
O        0.04372600       1.26331000      -1.59613000       0.00264030       0.00313000      -0.00492000
C        0.47279600       2.11384000      -0.83893400      -0.00263700       0.01004000      -0.00661600
N       -0.27858400       2.62842000       0.13429200       0.00921500      -0.02011000       0.00248900
H        0.19845400       3.25443000       0.79264700       0.00996200       0.00592000      -0.04011300
C       -1.65780000       2.27959000       0.37570500       0.00547000       0.02370000      -0.00677300
H       -2.00742000       2.81170000       1.26013000      -0.00974000       0.02485000       0.00171000
C       -2.57616000       2.60497000      -0.72391300       0.00755000      -0.00524000       0.02495700
C       -1.67518000       0.79110400       0.79266100      -0.00881000       0.01531100      -0.02633600
O       -1.08830000       0.46629500       1.88063000      -0.01130000       0.00264700       0.00152000
H       -3.67786000       2.21463000      -0.54919800       0.04993000      -0.05390000      -0.01771900
H       -2.70506000       3.65323000      -0.85448600      -0.08861000       0.02919000       0.03578500
H       -2.25570000       2.18126000      -1.66724000       0.03469000       0.02811000      -0.00060000
N       -2.29929000      -0.12050700       0.04041770      -0.01108000       0.01262000      -0.02335090
H       -2.65438000       0.15618800      -0.90997900      -0.01258000      -0.00997600       0.00371800
C       -2.21815000      -1.54557000       0.32375000       0.00002000       0.00846000      -0.02025400
H       -2.44160000      -1.88166000       1.37827000       0.03657000      -0.07563000      -0.03680000
C       -3.19361000      -2.31450000      -0.52706900      -0.00362000       0.00598000       0.00890100
C       -0.77254800      -2.15616000       0.22129700       0.00946500      -0.00684000      -0.01307600
O       -0.55493800      -3.21236000       0.81002400      -0.00670800      -0.00494000       0.01164800
H       -3.16969000      -3.40390000      -0.31075500      -0.03496000       0.01110000       0.01480600
H       -4.16160000      -2.06034000      -0.34834800      -0.10205000       0.01709000       0.03977500
H       -2.93271000      -2.18764000      -1.61311000      -0.02034000      -0.01315000       0.01551000
N        0.07255320      -1.47771000      -0.48927200      -0.00489190      -0.02310000      -0.00547800
H       -0.21884200      -0.61655000      -0.99448500      -0.00701800      -0.05308400      -0.03285500
C        1.47198000      -1.76868000      -0.59223700      -0.01194000      -0.00250000       0.00391600
H        1.68412000      -2.69285000      -0.05625320       0.03302000       0.00894000       0.05238071
C        1.92792000      -1.81491000      -2.05916000      -0.00603000      -0.01057000      -0.00029000
C        2.37371000      -0.79596300       0.22877200       0.00737000      -0.00120400       0.00594200
O        3.58977000      -0.61421000      -0.06253900       0.02209000       0.01748800      -0.00365330
H        3.00574000      -2.07041000      -2.08043000      -0.01360000      -0.02586000       0.01935000
H        1.40377000      -2.66319000      -2.55853000       0.01230000      -0.02937000       0.02197000
H        1.66355000      -0.88719800      -2.53302000      -0.04403000       0.00222300      -0.01426000
N        1.79667000      -0.15067600       1.22661000       0.01966000      -0.00445000      -0.00029000
H        0.81937700      -0.23632800       1.40257000      -0.03445400       0.03510800      -0.01790000
C        2.50236000       0.70926400       2.14136000      -0.01399000      -0.00409500       0.01364000
H        3.21252000       0.25861300       2.87692000       0.01068000       0.07392000       0.04818000
H        3.10978000       1.40818000       1.65124000       0.00311000       0.06912000       0.02027000
H        1.79030000       1.19100000       2.73749000      -0.08199000      -0.01800000       0.04184000
42
Properties=species:S:1:pos:R:3:displacements:R:3 timestep=2.0 pbc="F F F"
H        2.00688000       3.00564000      -1.88171000       0.00513000      -0.01279000       0.01177000
H        2.55457000       1.68886000      -0.80025500       0.03865000      -0.07830000       0.03108500
H        2.16973000       3.28221000      -0.10023900       0.01015000      -0.00410000       0.03153730
C        1.93974000       2.55645000      -0.88260400       0.01000000      -0.01039000       0.02115000
O        0.04522410       1.26520000      -1.59813000       0.00189690       0.00185000      -0.00665000
C        0.47078900       2.11893000      -0.84238000       0.00026200       0.00927000      -0.00599500
N       -0.27410800       2.61781000       0.13506500       0.00941900      -0.01739000       0.00425500
H        0.20549800       3.25860000       0.77360000       0.00263800       0.00288000      -0.04081300
C       -1.65510000       2.29186000       0.37181700       0.00553000       0.02135000      -0.00424000
H       -2.01408000       2.82403000       1.25969000      -0.00121000       0.02358000       0.00561000
C       -2.57114000       2.60245000      -0.71089400       0.00247000      -0.00478000       0.02151300
C       -1.68014000       0.79886600       0.77829500      -0.00633000       0.01438700      -0.02064300
O       -1.09351000       0.46738000       1.88217000      -0.01287000       0.00359000      -0.00187000
H       -3.66225000       2.18565000      -0.55838800       0.08160000      -0.04601000      -0.01474200
H       -2.74974000       3.66525000      -0.83641900      -0.08316000       0.03122000       0.03497700
H       -2.23922000       2.19500000      -1.66633000       0.03643000       0.03029000      -0.00288000
N       -2.30456000      -0.11416600       0.02918020      -0.01163000       0.01203000      -0.02396521
H       -2.66203000       0.15228300      -0.91273000      -0.00935000      -0.01199900       0.01529300
C       -2.21834000      -1.54083000       0.31325700       0.00087000       0.00614000      -0.01830700
H       -2.42329000      -1.92633000       1.36253000       0.03480000      -0.04490000      -0.04492000
C       -3.19575000      -2.31108000      -0.52206500      -0.00379000       0.00451000       0.00680600
C       -0.76670100      -2.15892000       0.21418300       0.00451500      -0.00959000      -0.01023600
O       -0.55828900      -3.21480000       0.81576500      -0.00657900      -0.00482000       0.01164100
H       -3.18942000      -3.40045000      -0.30340300      -0.02498000       0.01811000       0.01512000
H       -4.20593000      -2.05576000      -0.32915000      -0.10875000       0.02815000       0.03820000
H       -2.94059000      -2.19371000      -1.60762000      -0.02895000      -0.01443000       0.02158000
N        0.06947670      -1.48994000      -0.49123200      -0.00203500      -0.01986000      -0.00849200
H       -0.22264700      -0.64092400      -1.01289000      -0.00655800      -0.05779600      -0.02560000
C        1.46541000      -1.76996000      -0.59037800      -0.00894000      -0.00255000       0.00434200
H        1.70251000      -2.68634000      -0.02836830       0.02342000       0.00292000       0.04210640
C        1.92499000      -1.81947000      -2.05959000      -0.00640000      -0.01288000       0.00085000
C        2.37632000      -0.79672600       0.23252800       0.01169000      -0.00044700       0.00250200
O        3.60127000      -0.60537900      -0.06447320       0.01954000       0.01665500      -0.00310840
H        3.00054000      -2.08640000      -2.06988000      -0.01821000      -0.01263000       0.01499000
H        1.40958000      -2.68018000      -2.54822000       0.01244000      -0.02028000       0.02335000
H        1.64030000      -0.88733700      -2.53834000      -0.03642000       0.00295000      -0.01907000
N        1.80664000      -0.15298400       1.22592000       0.01800000      -0.00403000       0.00211000
H        0.80300500      -0.21806300       1.39381000      -0.02873800       0.03154900      -0.01949000
C        2.49513000       0.70733400       2.14769000      -0.01280000      -0.00337100       0.01546000
H        3.22039000       0.29857700       2.90407000      -0.00018000       0.05917100       0.03405000
H        3.11000000       1.43861000       1.66489000       0.00196000       0.07692000       0.01034000
H        1.75337000       1.17918000       2.75647000      -0.08860000      -0.01079000       0.04243000
42
Properties=species:S:1:pos:R:3:displacements:R:3 timestep=2.0 pbc="F F F"
H        2.00630000       2.99901000      -1.87659000       0.01971000      -0.01327000       0.01692000
H        2.57435000       1.64796000      -0.78391200       0.03441000      -0.06930000       0.02957500
H        2.17397000       3.28014000      -0.08351680       0.01433000      -0.00573000       0.02889000
C        1.94522000       2.55119000      -0.87179900       0.00923000      -0.01152000       0.02201100
O        0.04636630       1.26644000      -1.60105000       0.00128080       0.00076000      -0.00889000
C        0.47015900       2.12388000      -0.84555000       0.00357500       0.00839000      -0.00587400
N       -0.26936900       2.60831000       0.13678100       0.00997000      -0.01547000       0.00625300
H        0.20841600       3.26035000       0.75253400      -0.00215600       0.00469000      -0.03841800
C       -1.65233000       2.30329000       0.36893200       0.00606000       0.01985000      -0.00102300
H       -2.01716000       2.83655000       1.26184000       0.01012000       0.02160000       0.00794000
C       -2.56861000       2.59973000      -0.69895600      -0.00241000      -0.00301000       0.01768100
C       -1.68399000       0.80641500       0.76632500      -0.00396000       0.01395400      -0.01517500
O       -1.09960000       0.46894200       1.88215000      -0.01550000       0.00492500      -0.00612000
H       -3.62793000       2.16073000      -0.56691700       0.10781000      -0.04501000      -0.00964000
H       -2.79367000       3.68242000      -0.81870100      -0.07840000       0.02132000       0.03743400
H       -2.22101000       2.20937000      -1.66784000       0.03864000       0.03753000      -0.00058000
N       -2.31037000      -0.10788700       0.01706680      -0.01229000       0.01173900      -0.02469767
H       -2.66696000       0.14621200      -0.90626100      -0.01247000      -0.01013900       0.01273600
C       -2.21813000      -1.53711000       0.30349600       0.00199000       0.00394000      -0.01743300
H       -2.40503000      -1.95729000       1.34147000       0.03294000      -0.01165000      -0.05131000
C       -3.19723000      -2.30852000      -0.51816800      -0.00697000       0.00392000       0.00560500
C       -0.76308300      -2.16300000       0.20822100      -0.00104500      -0.01357000      -0.00742000
O       -0.56164600      -3.21730000       0.82167200      -0.00687100      -0.00478000       0.01222700
H       -3.20465000      -3.39280000      -0.29594900      -0.01555000       0.02365000       0.01751800
H       -4.26365000      -2.04325000      -0.30857300      -0.09168000       0.03413000       0.03281700
H       -2.95305000      -2.20079000      -1.59760000      -0.03969000      -0.01569000       0.02308000
N        0.06766130      -1.50081000      -0.49475000       0.00132820      -0.01774000      -0.01219400
H       -0.22586000      -0.66963400      -1.02734000      -0.00866300      -0.05956400      -0.02317000
C        1.46004000      -1.77118000      -0.58832100      -0.00552000      -0.00316000       0.00526400
H        1.71714000      -2.68391000      -0.00387249       0.01188000       0.00070000       0.02920079
C        1.92189000      -1.82548000      -2.05945000      -0.00757000      -0.01540000       0.00213000
C        2.38108000      -0.79716700       0.23471400       0.01741000       0.00055700      -0.00134700
O        3.61186000      -0.59672200      -0.06619230       0.01763000       0.01661300      -0.00266010
H        2.99214000      -2.09627000      -2.06108000      -0.02036000       0.00148000       0.01033000
H        1.41607000      -2.69256000      -2.53656000       0.01100000      -0.01415000       0.02421000
H        1.61952000      -0.88497500      -2.54728000      -0.02712000      -0.00434300      -0.02123000
N        1.81633000      -0.15512600       1.22632000       0.01616000      -0.00385100       0.00518000
H        0.78492300      -0.20122000       1.38467000      -0.00997800       0.02936600      -0.02436000
C        2.48837000       0.70516900       2.15500000      -0.01255000      -0.00066600       0.01869000
H        3.22320000       0.33253300       2.92510000      -0.01225000       0.04443800       0.01991000
H        3.11289000       1.47730000       1.67151000      -0.01119000       0.07626000       0.00883000
H        1.70831000       1.17300000       2.77933000      -0.08614000      -0.01178000       0.03411000
42
Properties=species:S:1:pos:R:3:displacements:R:3 timestep=2.0 pbc="F F F"
H        2.01201000       2.99285000      -1.86994000       0.03587000      -0.01475000       0.02381000
H        2.59322000       1.61056000      -0.76917000       0.02234000      -0.04937000       0.02783000
H        2.17988000       3.27811000      -0.06870170       0.01832000      -0.00988000       0.02507910
C        1.94974000       2.54606000      -0.86145400       0.00944000      -0.01378000       0.02355200
O        0.04712100       1.26705000      -1.60478000       0.00083080      -0.00004000      -0.01126000
C        0.47105100       2.12820000      -0.84837500       0.00695400       0.00714000      -0.00612300
N       -0.26468900       2.60042000       0.13932000       0.01059700      -0.01412000       0.00814800
H        0.20813600       3.26148000       0.73278700      -0.00343600       0.01218000      -0.03154600
C       -1.64957000       2.31321000       0.36757700       0.00689000       0.01875000       0.00260200
H       -2.01529000       2.84761000       1.26530000       0.02284000       0.01897000       0.00917000
C       -2.56867000       2.59767000      -0.68938100      -0.00599000       0.00020000       0.01337400
C       -1.68647000       0.81325300       0.75765200      -0.00182000       0.01365600      -0.00997600
O       -1.10638000       0.47097000       1.88030000      -0.01866000       0.00643600      -0.01079000
H       -3.58065000       2.13964000      -0.57313000       0.11577000      -0.05430000      -0.00207300
H       -2.83290000       3.69647000      -0.80144200      -0.07305000       0.00300000       0.04152200
H       -2.20279000       2.22529000      -1.66921000       0.04026000       0.04802000       0.00530000
N       -2.31619000      -0.10213600       0.00521499      -0.01261000       0.01146550      -0.02475239
H       -2.67138000       0.14028400      -0.89743700      -0.02196000      -0.00402000      -0.00532500
C       -2.21747000      -1.53469000       0.29495000       0.00325000       0.00212000      -0.01757800
H       -2.38849000      -1.97123000       1.31761000       0.02937000       0.02106000      -0.05055000
C       -3.19954000      -2.30657000      -0.51525900      -0.01201000       0.00405000       0.00520100
C       -0.76218600      -2.16851000       0.20394700      -0.00661300      -0.01794000      -0.00487700
O       -0.56486800      -3.21962000       0.82740600      -0.00740100      -0.00477000       0.01311700
H       -3.21440000      -3.38234000      -0.28828300      -0.00723000       0.02523000       0.02175300
H       -4.31468000      -2.02761000      -0.29095000      -0.05907000       0.03602000       0.02496800
H       -2.96954000      -2.20814000      -1.58604000      -0.05053000      -0.01634000       0.01784000
N        0.06744170      -1.50980000      -0.49972400       0.00477320      -0.01670000      -0.01578200
H       -0.22920500      -0.69872000      -1.03849000      -0.01344700      -0.05510200      -0.02655000