ITEM: TIMESTEP
0
ITEM: NUMBER OF ATOMS
21
ITEM: BOX BOUNDS pp pp pp
-2.5000000000000000e+01 2.5000000000000000e+01
-2.5000000000000000e+01 2.5000000000000000e+01
-2.5000000000000000e+01 2.5000000000000000e+01
ITEM: ATOMS id element type x y z vx vy vz fx fy fz v_pe
12 O 12 1.30644 6.078 -1.65179 -0.00500572 -0.00146561 -0.00320762 3.89588 -17.0069 -0.848862 5.86398
20 H 20 2.54827 4.02872 -2.64566 0.027219 0.0168169 0.00359256 0.156066 1.67916 -5.65371 5.86398
19 H 19 3.87704 1.94121 -2.62849 -0.00469816 -0.00188961 0.0161322 4.47852 -9.50335 -10.7641 5.86398
18 H 18 4.08448 0.701131 -0.421968 0.0375127 0.0162918 -0.0284885 0.466437 20.2208 0.198967 5.86398
11 C 11 1.47146 5.44677 -0.60245 -0.00224881 0.0079816 -0.00198145 2.41577 21.5714 -1.98686 5.86398
10 C 10 2.19719 4.14157 -0.520089 -0.00311413 -0.00372306 -0.00382873 4.15184 -29.3177 -46.3916 5.86398
9 C 9 2.71421 3.5098 -1.71998 7.85168e-05 0.00587893 0.00535438 -9.41446 33.9057 13.2469 5.86398
8 C 8 3.48125 2.32819 -1.72269 0.00592145 -0.00174407 0.0113323 -21.1005 17.2808 31.0936 5.86398
7 C 7 3.62998 1.70754 -0.469972 0.00548171 -0.00514427 0.00406938 10.3986 -34.7446 -9.44154 5.86398
1 O 1 4.01397 3.71658 2.85996 0.00348528 -0.000526255 -0.0102229 101.308 -17.8619 7.13607 5.86398
21 H 21 1.42201 5.46392 1.20649 0.00348081 0.0090172 -0.0202623 3.23187 -9.50601 13.8671 5.86398
17 H 17 3.28794 1.68535 1.64898 0.00433971 -0.0201528 -0.000853035 -6.57108 16.3501 -20.9137 5.86398
16 H 16 2.76712 5.5728 4.25277 -0.00939258 0.00546436 -0.03487 -17.3996 -8.30368 4.12822 5.86398
15 H 15 1.22961 4.53544 4.23174 0.0208331 0.00503427 -0.0233364 16.6054 1.3826 7.96685 5.86398
14 H 14 2.8123 4.09793 5.19134 -0.00413549 -0.0242826 0.0135559 -17.8863 1.72717 -24.0763 5.86398
13 O 13 1.16179 6.07283 0.547542 0.00629798 0.00211792 0.00704519 -9.15136 9.1797 -2.74222 5.86398
6 C 6 3.11131 2.2632 0.708699 -0.00448846 -0.00798442 -0.00344148 0.665702 -40.0559 -0.100625 5.86398
5 C 5 2.36388 3.44629 0.684054 -0.00452124 0.00474875 0.00578974 36.0734 -12.1846 18.3423 5.86398
4 O 4 2.04406 3.93766 1.90638 -0.00576075 0.000439444 0.00301698 -37.2844 29.7129 14.3456 5.86398
3 C 3 2.34284 4.5465 4.26636 0.000825426 -0.000610819 -0.00586553 18.9025 7.89459 -13.1456 5.86398
2 C 2 2.9113 4.00081 2.93156 -0.00293236 -0.000684573 -0.000687211 -83.9428 17.5799 25.7394 5.86398
ITEM: TIMESTEP
10
ITEM: NUMBER OF ATOMS
21
ITEM: BOX BOUNDS pp pp pp
-2.5000000000000000e+01 2.5000000000000000e+01
-2.5000000000000000e+01 2.5000000000000000e+01
-2.5000000000000000e+01 2.5000000000000000e+01
ITEM: ATOMS id element type x y z vx vy vz fx fy fz v_pe
12 O 12 1.30147 6.07633 -1.65501 -0.00492213 -0.00185454 -0.00325429 2.47341 -12.6728 -2.76287 4.40539
20 H 20 2.57541 4.04578 -2.64309 0.026972 0.0171572 0.00171928 -1.3336 -0.151746 -3.12246 4.40539
19 H 19 3.87349 1.9373 -2.61483 -0.00220201 -0.00593648 0.0110329 7.16201 -9.57543 -12.9716 4.40539
18 H 18 4.12206 0.721124 -0.450093 0.037661 0.0231185 -0.0274391 0.556282 12.0812 4.77474 4.40539
11 C 11 1.46928 5.45506 -0.60444 -0.00207284 0.00852678 -0.00197163 7.75843 9.52124 2.49349 4.40539
10 C 10 2.19411 4.13742 -0.524642 -0.00311221 -0.00448983 -0.00518573 -4.15264 -14.5074 -30.9466 4.40539
9 C 9 2.71418 3.5162 -1.71444 -7.2426e-05 0.00685192 0.00565909 0.820603 21.9119 3.7877 4.40539
8 C 8 3.48675 2.32681 -1.71083 0.00503751 -0.000967288 0.0123678 -29.1832 26.8175 27.392 4.40539
7 C 7 3.63564 1.70183 -0.466098 0.00584479 -0.00622452 0.00364825 10.063 -26.5881 -14.4854 4.40539
1 O 1 4.01874 3.71584 2.84984 0.00601416 -0.00095725 -0.0100187 91.0949 -14.8611 8.53722 4.40539
21 H 21 1.42662 5.4699 1.19032 0.00614224 0.00196473 -0.0110136 8.97912 -23.0475 28.9716 4.40539
17 H 17 3.29082 1.66885 1.64357 0.00134818 -0.0126731 -0.0100773 -7.57109 18.8375 -22.2465 4.40539
16 H 16 2.75426 5.57646 4.21898 -0.0161504 0.00181247 -0.0324523 -14.8074 -8.72271 7.51286 4.40539
15 H 15 1.25291 4.54069 4.2101 0.0247261 0.00539044 -0.0199074 1.83147 0.305606 8.44839 4.40539
14 H 14 2.80418 4.07457 5.19915 -0.0123035 -0.0218995 0.00140938 -20.7076 9.19977 -33.1766 4.40539
13 O 13 1.16794 6.07514 0.55446 0.00597487 0.00256612 0.00670721 -14.9404 23.654 -21.3597 4.40539
6 C 6 3.10682 2.25454 0.705322 -0.00450971 -0.00929922 -0.00325455 -2.06688 -34.5896 9.53296 4.40539
5 C 5 2.36002 3.45075 0.690097 -0.003178 0.00410865 0.00622607 40.8538 -24.3757 6.53417 4.40539
4 O 4 2.03781 3.93849 1.90959 -0.00673704 0.00122711 0.00342067 -37.3944 30.4774 16.3915 4.40539
3 C 3 2.34408 4.546 4.26033 0.00173596 -0.00040556 -0.00614865 32.3858 3.98324 -4.08154 4.40539
2 C 2 2.90696 4.0004 2.9313 -0.00566763 -0.000158036 0.000127235 -71.8216 12.3028 20.7765 4.40539
ITEM: TIMESTEP
20
ITEM: NUMBER OF ATOMS
21
ITEM: BOX BOUNDS pp pp pp
-2.5000000000000000e+01 2.5000000000000000e+01
-2.5000000000000000e+01 2.5000000000000000e+01
-2.5000000000000000e+01 2.5000000000000000e+01
ITEM: ATOMS id element type x y z vx vy vz fx fy fz v_pe
12 O 12 1.29658 6.07433 -1.65831 -0.00487692 -0.00212702 -0.00335287 0.986536 -8.17525 -4.76019 2.45945
20 H 20 2.60201 4.06275 -2.64179 0.0261161 0.0166274 0.0011416 -2.79096 -2.43113 0.411731 2.45945
19 H 19 3.87284 1.9295 -2.60637 0.000911698 -0.00947421 0.00608627 7.45609 -7.05172 -10.042 2.45945
18 H 18 4.15992 0.746059 -0.476262 0.0381711 0.0260227 -0.0246266 2.03867 1.81074 8.62853 2.45945
11 C 11 1.46738 5.46368 -0.606344 -0.00170697 0.00863745 -0.00181387 13.2139 -3.1708 6.45466 2.45945
10 C 10 2.19087 4.13276 -0.530265 -0.00340454 -0.00472959 -0.00595395 -12.5504 0.662432 -12.8701 2.45945
9 C 9 2.71418 3.52336 -1.70878 0.000135375 0.007408 0.00559766 11.0285 10.1195 -7.42304 2.45945
8 C 8 3.49125 2.32635 -1.69803 0.00392572 8.34994e-05 0.0131707 -34.085 32.889 17.7551 2.45945
7 C 7 3.64165 1.6952 -0.462723 0.00615996 -0.00696408 0.00308258 7.79451 -15.6589 -17.6344 2.45945
1 O 1 4.02588 3.7147 2.83994 0.00820089 -0.00129223 -0.00977327 75.3095 -10.5734 10.2858 2.45945
21 H 21 1.43478 5.4667 1.18572 0.0102493 -0.00851971 0.00197726 9.87427 -25.2918 31.259 2.45945
17 H 17 3.29062 1.65999 1.62918 -0.00170759 -0.0052399 -0.018244 -6.87832 16.1657 -15.9176 2.45945
16 H 16 2.73532 5.5766 4.18832 -0.0214154 -0.00131788 -0.0286594 -10.2932 -5.87318 10.7117 2.45945
15 H 15 1.27699 4.54606 4.19195 0.0223936 0.00527329 -0.0163967 -12.6633 -0.878189 8.40277 2.45945
14 H 14 2.78764 4.0549 5.19349 -0.0206404 -0.0172149 -0.0127633 -18.6488 12.6136 -33.5733 2.45945
13 O 13 1.17371 6.07804 0.560848 0.0055603 0.00325284 0.00604406 -15.8149 26.6409 -26.9466 2.45945
6 C 6 3.10226 2.24469 0.702254 -0.00464355 -0.0103374 -0.00287257 -5.7344 -24.3071 11.0998 2.45945
5 C 5 2.35757 3.45437 0.696366 -0.00169322 0.00307013 0.00623977 44.071 -34.8848 -5.7198 2.45945
4 O 4 2.03059 3.94012 1.91323 -0.00771591 0.00202989 0.00386472 -37.4189 30.8239 17.3453 2.45945
3 C 3 2.34643 4.54565 4.25413 0.00298542 -0.00031782 -0.00623233 37.6985 1.39391 -1.99954 2.45945
2 C 2 2.90014 4.00042 2.93175 -0.0078529 0.0001509 0.000745334 -52.5932 5.17651 14.5321 2.45945
ITEM: TIMESTEP
30
ITEM: NUMBER OF ATOMS
21
ITEM: BOX BOUNDS pp pp pp
-2.5000000000000000e+01 2.5000000000000000e+01
-2.5000000000000000e+01 2.5000000000000000e+01
-2.5000000000000000e+01 2.5000000000000000e+01
ITEM: ATOMS id element type x y z vx vy vz fx fy fz v_pe
12 O 12 1.29171 6.07212 -1.66174 -0.00486978 -0.00228445 -0.00350079 -0.415633 -3.93906 -6.47463 0.475387
20 H 20 2.62745 4.07872 -2.64032 0.0246535 0.0151579 0.00203468 -4.25609 -4.57425 3.75684 0.475387
19 H 19 3.87521 1.91886 -2.60194 0.00370379 -0.0114811 0.00328529 5.72707 -2.32579 -2.92718 0.475387
18 H 18 4.19864 0.771776 -0.498882 0.0393692 0.0247454 -0.0204086 3.62744 -7.58904 11.5399 0.475387
11 C 11 1.46593 5.47219 -0.608026 -0.00115811 0.00831265 -0.00153056 18.1687 -15.2869 9.68414 0.475387
10 C 10 2.18721 4.12813 -0.536335 -0.00397423 -0.00445873 -0.0060729 -19.8936 14.5489 6.01617 0.475387
9 C 9 2.71456 3.53088 -1.70338 0.000684699 0.0075683 0.00514779 20.2754 -0.707444 -18.1348 0.475387
8 C 8 3.49457 2.32702 -1.68463 0.00270224 0.00127986 0.0135473 -35.6325 35.1995 3.24939 0.475387
7 C 7 3.64793 1.68803 -0.459956 0.00637896 -0.00731775 0.00244534 4.77494 -4.90749 -18.6055 0.475387
1 O 1 4.03499 3.71329 2.83031 0.009915 -0.00150235 -0.00947833 55.1874 -5.38394 12.3086 0.475387
21 H 21 1.44685 5.45345 1.19362 0.0135637 -0.0172234 0.0130459 5.28302 -14.7472 20.1609 0.475387
17 H 17 3.28761 1.6577 1.60839 -0.00416017 0.000169981 -0.0224683 -4.75078 9.38879 -3.7339 0.475387
16 H 16 2.71214 5.57439 4.16208 -0.0245306 -0.00273701 -0.0236146 -4.60322 -0.700277 13.5205 0.475387
15 H 15 1.29595 4.55107 4.17728 0.0148208 0.00466106 -0.0129651 -22.8398 -2.06503 8.11544 0.475387
14 H 14 2.76351 4.04029 5.1742 -0.0271625 -0.0120823 -0.0252088 -12.1588 11.3699 -25.0503 0.475387
13 O 13 1.17908 6.08162 0.566562 0.00519742 0.00384286 0.00541928 -11.1076 16.5283 -18.8838 0.475387
6 C 6 3.09749 2.23401 0.699553 -0.00491303 -0.0109549 -0.00256018 -9.71564 -10.8285 5.97524 0.475387
5 C 5 2.35666 3.45679 0.702438 -0.000134759 0.00171017 0.00583641 44.965 -42.6617 -17.2206 0.475387
4 O 4 2.02238 3.94255 1.91732 -0.00868934 0.00283272 0.00431414 -36.8879 30.4156 16.7346 0.475387
3 C 3 2.35006 4.54535 4.24785 0.0042356 -0.000277567 -0.00637654 32.2542 1.42558 -7.41886 0.475387
2 C 2 2.89151 4.00062 2.93271 -0.00926895 0.000188423 0.00112919 -28.0015 -3.16001 7.38781 0.475387
ITEM: TIMESTEP
40
ITEM: NUMBER OF ATOMS
21
ITEM: BOX BOUNDS pp pp pp
-2.5000000000000000e+01 2.5000000000000000e+01
-2.5000000000000000e+01 2.5000000000000000e+01
-2.5000000000000000e+01 2.5000000000000000e+01
ITEM: ATOMS id element type x y z vx vy vz fx fy fz v_pe
12 O 12 1.28683 6.0698 -1.66533 -0.00489678 -0.0023384 -0.00368579 -1.60488 -0.311703 -7.53767 0.0354467
20 H 20 2.65112 4.09281 -2.63734 0.0225898 0.0129342 0.00406969 -5.66893 -5.97527 5.74468 0.0354467
19 H 19 3.87992 1.90729 -2.59866 0.00551241 -0.011245 0.00390774 2.90127 3.53793 5.97368 0.0354467
18 H 18 4.23881 0.794459 -0.516742 0.0409898 0.0201901 -0.0151664 3.84369 -13.6716 13.5948 0.0354467
11 C 11 1.46511 5.48018 -0.609373 -0.000453302 0.00759194 -0.00114792 22.0881 -25.7379 12.1686 0.0354467
10 C 10 2.18285 4.12399 -0.542198 -0.00476604 -0.00374804 -0.00554761 -25.1473 25.6997 23.8101 0.0354467
9 C 9 2.71565 3.53838 -1.6986 0.00152614 0.00737628 0.00436527 27.657 -10.0313 -26.2063 0.0354467
8 C 8 3.49665 2.32891 -1.67112 0.00147647 0.00249777 0.0133714 -34.344 34.2662 -13.4271 0.0354467
7 C 7 3.65438 1.68068 -0.457832 0.00650066 -0.007337 0.00180786 2.43177 3.22983 -17.7428 0.0354467
1 O 1 4.04553 3.71174 2.821 0.0110633 -0.00157001 -0.00912797 32.3276 0.240588 14.5041 0.0354467
21 H 21 1.46099 5.43437 1.20962 0.0141445 -0.0196104 0.0175996 -2.77575 3.94096 1.16527 0.0354467
17 H 17 3.28265 1.65924 1.58613 -0.00555229 0.00230907 -0.0210422 -1.91823 0.865449 10.5936 0.0354467
16 H 16 2.68706 5.57191 4.14144 -0.0252154 -0.00179884 -0.0175027 1.24217 5.18787 15.8462 0.0354467
15 H 15 1.30568 4.55523 4.16598 0.00440665 0.00357062 -0.00966006 -26.0858 -3.16781 7.81813 0.0354467
14 H 14 2.73442 4.03027 5.14474 -0.0303611 -0.0083228 -0.032651 -3.00942 6.23686 -10.0632 0.0354467
13 O 13 1.18417 6.0856 0.571799 0.00501107 0.004042 0.00512788 -2.83845 -2.03879 -2.77969 0.0354467
6 C 6 3.09239 2.22294 0.697051 -0.00531262 -0.011088 -0.00249316 -13.0236 2.96621 -2.27915 0.0354467
5 C 5 2.3573 3.45772 0.707916 0.00140477 0.000140765 0.00506149 42.8939 -46.7754 -26.8888 0.0354467
4 O 4 2.01322 3.94578 1.92185 -0.00963518 0.00361026 0.0047234 -35.2048 28.811 14.2356 0.0354467
3 C 3 2.35478 4.54511 4.24128 0.00511263 -0.000180973 -0.00681283 16.6314 4.63545 -18.2205 0.0354467
2 C 2 2.88191 4.0007 2.93393 -0.00976844 -7.41016e-05 0.00125359 -0.395847 -11.9084 -0.3097 0.0354467
ITEM: TIMESTEP
50
ITEM: NUMBER OF ATOMS
21
ITEM: BOX BOUNDS pp pp pp
-2.5000000000000000e+01 2.5000000000000000e+01
-2.5000000000000000e+01 2.5000000000000000e+01
-2.5000000000000000e+01 2.5000000000000000e+01
ITEM: ATOMS id element type x y z vx vy vz fx fy fz v_pe
12 O 12 1.28191 6.06747 -1.66911 -0.00495094 -0.00230832 -0.00388645 -2.47758 2.45409 -7.62379 1.74396
20 H 20 2.67244 4.10447 -2.63204 0.0199745 0.0103583 0.00650676 -6.88635 -6.23176 5.62014 1.74396
19 H 19 3.88583 1.89717 -2.59294 0.00612366 -0.00858605 0.00806563 0.153716 9.10186 13.601 1.74396
18 H 18 4.28049 0.811623 -0.528981 0.042213 0.0140249 -0.0092127 1.5944 -15.2819 14.999 1.74396
11 C 11 1.46506 5.48727 -0.610297 0.000363879 0.00654912 -0.000690142 24.5662 -33.66 14.0222 1.74396
10 C 10 2.17763 4.12074 -0.54724 -0.00569225 -0.00271328 -0.00444736 -27.4994 33.0064 38.7628 1.74396
9 C 9 2.71769 3.54554 -1.69472 0.0025804 0.00689224 0.003371 32.3766 -17.399 -30.112 1.74396
8 C 8 3.49755 2.33199 -1.65808 0.000332008 0.00364139 0.0126273 -31.1287 31.1267 -28.7876 1.74396
7 C 7 3.66091 1.67343 -0.456323 0.00656902 -0.00713723 0.00122299 1.82649 7.60633 -15.6958 1.74396
1 O 1 4.05691 3.7102 2.81207 0.0115978 -0.0014903 -0.00871931 8.54906 5.80501 16.7446 1.74396
21 H 21 1.47399 5.41691 1.22614 0.0112975 -0.0140238 0.0141533 -10.5634 22.1154 -16.8457 1.74396
17 H 17 3.27689 1.66118 1.56818 -0.0057904 0.00104545 -0.013997 0.645186 -6.54508 22.6204 1.74396
16 H 16 2.66247 5.57155 4.12736 -0.0236164 0.00141646 -0.0105318 6.2566 9.98391 17.6524 1.74396
15 H 15 1.30484 4.55807 4.15793 -0.00579236 0.00205659 -0.00647008 -21.9097 -4.08773 7.54728 1.74396
14 H 14 2.70409 4.02277 5.11117 -0.029634 -0.00716996 -0.0332711 6.33861 -0.779703 7.00148 1.74396
13 O 13 1.18918 6.08953 0.576962 0.00504712 0.00373902 0.00526442 5.22397 -20.2889 12.2667 1.74396
6 C 6 3.08684 2.21198 0.694473 -0.00579966 -0.0107829 -0.00270313 -14.5642 13.8137 -9.19848 1.74396
5 C 5 2.35942 3.45704 0.712465 0.00281423 -0.0014982 0.00399474 37.457 -46.5817 -33.8527 1.74396
4 O 4 2.00313 3.94975 1.92674 -0.0105151 0.00432494 0.00504091 -31.7431 25.5326 9.71174 1.74396
3 C 3 2.36006 4.54504 4.23408 0.00531504 7.65882e-05 -0.00766016 -5.72697 10.4835 -30.2109 1.74396
2 C 2 2.8723 4.00037 2.93513 -0.00929299 -0.000635597 0.00110508 27.5115 -20.174 -8.22284 1.74396
ITEM: TIMESTEP
60
ITEM: NUMBER OF ATOMS
21
ITEM: BOX BOUNDS pp pp pp
-2.5000000000000000e+01 2.5000000000000000e+01
-2.5000000000000000e+01 2.5000000000000000e+01
-2.5000000000000000e+01 2.5000000000000000e+01
ITEM: ATOMS id element type x y z vx vy vz fx fy fz v_pe
12 O 12 1.27692 6.0652 -1.6731 -0.00502288 -0.00221904 -0.00407388 -2.95224 4.19549 -6.49717 4.17287
20 H 20 2.69092 4.11358 -2.62449 0.0169229 0.00792808 0.00842678 -7.74691 -5.29899 3.30125 4.17287
19 H 19 3.89185 1.89078 -2.58172 0.00580248 -0.00392443 0.0146394 -1.43919 12.9897 17.2487 4.17287
18 H 18 4.32274 0.822587 -0.535013 0.0419372 0.00808137 -0.00279017 -3.32278 -12.7789 15.8538 4.17287
11 C 11 1.46586 5.4932 -0.610735 0.00123842 0.00528326 -0.000176816 25.3536 -38.4738 15.3744 4.17287
10 C 10 2.17146 4.11862 -0.550944 -0.00664206 -0.00150115 -0.00289649 -26.449 35.8182 49.4949 4.17287
9 C 9 2.72084 3.55209 -1.69187 0.0037438 0.00619243 0.00232309 33.8494 -22.3375 -29.2784 4.17287
8 C 8 3.49736 2.33615 -1.64602 -0.000680978 0.00465397 0.0114186 -26.9386 26.915 -39.6667 4.17287
7 C 7 3.66752 1.66643 -0.455359 0.00665065 -0.006847 0.000721503 3.13319 8.60245 -13.023 4.17287
1 O 1 4.06852 3.70881 2.80358 0.0115188 -0.00127104 -0.00825313 -14.2833 10.8406 18.8756 4.17287
21 H 21 1.48274 5.40831 1.23599 0.0059299 -0.00252938 0.0049176 -14.4264 31.2426 -25.6387 4.17287
17 H 17 3.27135 1.66052 1.55941 -0.00518012 -0.00263214 -0.00311766 2.0468 -10.4592 28.5691 4.17287
16 H 16 2.64042 5.57525 4.12058 -0.0202338 0.00612465 -0.00293204 9.75936 12.1807 18.8523 4.17287
15 H 15 1.29511 4.55923 4.153 -0.0129748 0.000219265 -0.00341563 -11.983 -4.7049 7.12189 4.17287
14 H 14 2.67632 4.01498 5.08041 -0.025393 -0.00885627 -0.0272484 13.6047 -6.98278 21.1501 4.17287
13 O 13 1.19432 6.09295 0.582424 0.00524956 0.00306117 0.00568503 9.38533 -29.5155 17.829 4.17287
6 C 6 3.08078 2.20147 0.691591 -0.0062965 -0.0101907 -0.00307301 -13.4838 19.1299 -10.9573 4.17287
5 C 5 2.36284 3.45476 0.715844 0.0039743 -0.00305184 0.00274171 28.5994 -41.8893 -37.5085 4.17287
4 O 4 1.99223 3.95439 1.93188 -0.0112752 0.00492757 0.00521406 -25.9782 20.1932 3.21934 4.17287
3 C 3 2.36513 4.54534 4.22584 0.00469488 0.000561998 -0.00887239 -29.6893 17.392 -38.351 4.17287
2 C 2 2.86363 3.99934 2.93605 -0.00788052 -0.00146346 0.000682612 52.961 -27.0591 -15.9694 4.17287
ITEM: TIMESTEP
70
ITEM: NUMBER OF ATOMS
21
ITEM: BOX BOUNDS pp pp pp
-2.5000000000000000e+01 2.5000000000000000e+01
-2.5000000000000000e+01 2.5000000000000000e+01
-2.5000000000000000e+01 2.5000000000000000e+01
ITEM: ATOMS id element type x y z vx vy vz fx fy fz v_pe
12 O 12 1.27186 6.06304 -1.67725 -0.00510132 -0.00209864 -0.00421463 -2.96671 4.82601 -4.04641 5.54404
20 H 20 2.7062 4.12052 -2.61563 0.0136087 0.00607805 0.00902769 -8.14027 -3.52198 -0.57938 5.54404
19 H 19 3.89734 1.88969 -2.56352 0.00518582 0.00183886 0.0216206 -1.20486 14.3258 15.4601 5.54404
18 H 18 4.36355 0.828335 -0.534486 0.0392011 0.0037725 0.003858 -10.034 -7.73437 16.0535 5.54404
11 C 11 1.46754 5.4978 -0.610638 0.00210948 0.00390823 0.000375658 24.3662 -39.9085 16.2654 5.54404
10 C 10 2.16438 4.11774 -0.552938 -0.00749358 -0.000272033 -0.0010585 -21.8675 34.0043 55.1552 5.54404
9 C 9 2.72517 3.55788 -1.69004 0.0048974 0.00537023 0.00138158 31.7975 -24.3448 -24.155 5.54404
8 C 8 3.49624 2.34125 -1.63533 -0.0015416 0.0055137 0.00993837 -22.4595 22.4393 -44.2188 5.54404
7 C 7 3.67424 1.65973 -0.454847 0.00679951 -0.00655898 0.000320294 5.45805 7.80987 -9.94306 5.54404
1 O 1 4.07976 3.7077 2.79558 0.0108742 -0.000931406 -0.00773456 -34.4395 14.9547 20.7198 5.54404
21 H 21 1.48571 5.4122 1.23565 0.00013092 0.0100211 -0.00527623 -12.5612 26.9845 -21.303 5.54404
17 H 17 3.26661 1.65569 1.56223 -0.00432439 -0.00698916 0.00859691 1.79166 -9.76704 26.5267 5.54404
16 H 16 2.62236 5.58388 4.12161 -0.0157602 0.0110509 0.00500505 11.5101 10.9744 19.2322 5.54404
15 H 15 1.28048 4.55845 4.15101 -0.0153899 -0.00179096 -0.000618194 0.44318 -4.90495 6.26538 5.54404
14 H 14 2.65408 4.00441 5.05818 -0.0188248 -0.0124958 -0.0166973 17.4252 -9.83448 28.2944 5.54404
13 O 13 1.19969 6.09563 0.588323 0.00548697 0.00231536 0.00607722 7.81632 -25.2563 9.94145 5.54404
6 C 6 3.07427 2.19162 0.688347 -0.0067048 -0.00952744 -0.00338336 -9.49214 17.8865 -5.67902 5.54404
5 C 5 2.36725 3.45102 0.717926 0.00477078 -0.00436828 0.00142374 16.6743 -33.0759 -37.5588 5.54404
4 O 4 1.98065 3.95955 1.9371 -0.0118511 0.00536182 0.005194 -17.629 12.6646 -5.01417 5.54404
3 C 3 2.36918 4.54624 4.21629 0.00329005 0.00127597 -0.0102362 -49.9676 23.2544 -38.3489 5.54404
2 C 2 2.8568 3.99737 2.93641 -0.00566099 -0.00249541 2.49502e-08 73.4797 -31.776 -23.0675 5.54404
ITEM: TIMESTEP
80
ITEM: NUMBER OF ATOMS
21
ITEM: BOX BOUNDS pp pp pp
-2.5000000000000000e+01 2.5000000000000000e+01
-2.5000000000000000e+01 2.5000000000000000e+01
-2.5000000000000000e+01 2.5000000000000000e+01
ITEM: ATOMS id element type x y z vx vy vz fx fy fz v_pe
12 O 12 1.26672 6.06101 -1.6815 -0.00517364 -0.00197654 -0.00427413 -2.47975 4.32687 -0.299942 5.81124
20 H 20 2.71812 4.126 -2.60702 0.0102338 0.00503401 0.00788838 -8.04292 -1.5341 -4.86756 5.81124
19 H 19 3.90239 1.89446 -2.53909 0.00506897 0.00759839 0.0267479 0.925574 13.0304 8.50716 5.81124
18 H 18 4.40018 0.830886 -0.527326 0.0335932 0.00171469 0.010413 -16.8401 -2.2956 15.365 5.81124
11 C 11 1.47006 5.50102 -0.609976 0.00291611 0.00254193 0.000949903 21.6794 -38.0049 16.5969 5.81124
10 C 10 2.15654 4.11803 -0.553026 -0.00812733 0.000818376 0.000883797 -14.023 27.9619 55.4917 5.81124
9 C 9 2.7306 3.56283 -1.68903 0.00591881 0.00453563 0.000675667 26.3037 -22.9937 -16.0084 5.81124
8 C 8 3.49433 2.34713 -1.62616 -0.00224509 0.00621694 0.00841214 -17.9088 17.9115 -42.472 5.81124
7 C 7 3.68114 1.6533 -0.45468 0.00702314 -0.00629891 3.48157e-05 7.11141 7.34973 -6.34101 5.81124
1 O 1 4.09011 3.70698 2.78813 0.00975362 -0.00049942 -0.00717359 -50.4863 17.868 22.0879 5.81124
21 H 21 1.48363 5.4269 1.22686 -0.00381711 0.0182519 -0.0112127 -5.87931 11.2627 -5.96105 5.81124
17 H 17 3.26256 1.64694 1.57579 -0.00391321 -0.0101629 0.0178615 -0.02955 -4.9695 17.0686 5.81124
16 H 16 2.60903 5.59695 4.13057 -0.0109003 0.0147732 0.0128778 11.6744 6.47598 18.4932 5.81124
15 H 15 1.266 4.55566 4.1516 -0.0127935 -0.00378604 0.00169929 11.5465 -4.62959 4.79627 5.81124
14 H 14 2.63894 3.98992 5.04739 -0.0114363 -0.0163406 -0.00501599 17.6163 -7.85354 26.4961 5.81124
13 O 13 1.20525 6.09767 0.594457 0.00561551 0.00184306 0.00610544 1.4341 -9.44524 -9.13054 5.81124
6 C 6 3.06744 2.18237 0.684923 -0.00692881 -0.0090112 -0.00339415 -3.03911 10.9929 5.90254 5.81124
5 C 5 2.37223 3.44614 0.718711 0.00510894 -0.00531925 0.000166883 2.44228 -21.1113 -34.0314 5.81124
4 O 4 1.96861 3.96504 1.94219 -0.012175 0.0055729 0.00493974 -6.7534 3.20028 -14.6201 5.81124
3 C 3 2.37152 4.54795 4.20543 0.00130583 0.00214778 -0.011424 -62.4108 26.2062 -28.154 5.81124
2 C 2 2.85251 3.99431 2.93597 -0.00284133 -0.00364515 -0.00090997 87.1593 -33.749 -28.9194 5.81124
ITEM: TIMESTEP
90
ITEM: NUMBER OF ATOMS
21
ITEM: BOX BOUNDS pp pp pp
-2.5000000000000000e+01 2.5000000000000000e+01
-2.5000000000000000e+01 2.5000000000000000e+01
-2.5000000000000000e+01 2.5000000000000000e+01
ITEM: ATOMS id element type x y z vx vy vz fx fy fz v_pe
12 O 12 1.26152 6.05908 -1.68576 -0.0052265 -0.00188179 -0.00422036 -1.47892 2.75031 4.57924 6.28195
20 H 20 2.72671 4.13084 -2.6004 0.00699285 0.00473336 0.00511388 -7.50768 -0.0523693 -8.2508 6.28195
19 H 19 3.90787 1.90456 -2.51124 0.00613938 0.0123919 0.0282253 4.37 9.85425 -1.70233 6.28195
18 H 18 4.4299 0.832427 -0.513826 0.0254777 0.00163998 0.0164644 -21.8183 1.53739 13.6124 6.28195
11 C 11 1.47333 5.50292 -0.608738 0.00360259 0.00129546 0.00152301 17.5163 -33.1101 16.1615 6.28195
10 C 10 2.14823 4.11929 -0.551196 -0.0084399 0.00163682 0.00274911 -3.56196 18.5698 50.8335 6.28195
9 C 9 2.73693 3.56699 -1.68858 0.00669481 0.00380954 0.00028194 17.808 -18.1218 -6.51739 6.28195
8 C 8 3.4918 2.35363 -1.61845 -0.00278517 0.00675652 0.00703192 -12.9915 12.9386 -36.2615 6.28195
7 C 7 3.68829 1.64714 -0.454732 0.00726529 -0.00602088 -0.000112494 6.24249 9.0918 -1.97334 6.28195
1 O 1 4.09915 3.70672 2.78125 0.00827871 -8.67903e-06 -0.00658504 -61.4059 19.4356 22.8019 6.28195
21 H 21 1.47916 5.44612 1.21573 -0.0045197 0.0187847 -0.00967937 2.43223 -8.60555 13.2427 6.28195
17 H 17 3.25846 1.63621 1.59628 -0.00447733 -0.0108025 0.0221332 -2.7629 2.04887 3.10467 6.28195
16 H 16 2.6005 5.61263 4.14717 -0.00623207 0.0161051 0.0201689 10.665 -0.315833 16.4072 6.28195
15 H 15 1.25614 4.55095 4.15417 -0.00644923 -0.00557343 0.00328471 18.064 -3.9206 2.76945 6.28195
14 H 14 2.63101 3.97233 5.04731 -0.00460492 -0.0183596 0.00415377 14.9127 -1.21341 16.5477 6.28195
13 O 13 1.21085 6.09948 0.600344 0.00554774 0.00185791 0.00556649 -6.54814 10.4705 -31.9252 6.28195
6 C 6 3.0605 2.17349 0.681715 -0.00690093 -0.00879747 -0.00293468 4.73686 1.05408 20.6461 6.28195
5 C 5 2.3773 3.44053 0.71832 0.00492675 -0.00581938 -0.000909475 -12.9975 -7.46717 -27.2804 6.28195
4 O 4 1.9564 3.97061 1.9469 -0.0121857 0.00551759 0.00442159 6.23757 -7.5828 -25.1039 6.28195
3 C 3 2.37171 4.55055 4.19361 -0.00093923 0.0030564 -0.0120899 -64.7414 25.3148 -8.82477 6.28195
2 C 2 2.85123 3.99008 2.93453 0.000317575 -0.00481103 -0.00199252 92.8292 -32.6765 -32.8666 6.28195
ITEM: TIMESTEP
100
ITEM: NUMBER OF ATOMS
21
ITEM: BOX BOUNDS pp pp pp
-2.5000000000000000e+01 2.5000000000000000e+01
-2.5000000000000000e+01 2.5000000000000000e+01
-2.5000000000000000e+01 2.5000000000000000e+01
ITEM: ATOMS id element type x y z vx vy vz fx fy fz v_pe
12 O 12 1.25628 6.05722 -1.68989 -0.00524673 -0.00184097 -0.00402708 0.00738437 0.232108 10.3171 7.58865
20 H 20 2.7322 4.13561 -2.59713 0.00404952 0.00484118 0.00131457 -6.6249 0.367747 -9.67153 7.58865
19 H 19 3.91517 1.91874 -2.48411 0.00872673 0.0157008 0.0252877 8.0218 6.11886 -12.2475 7.58865
18 H 18 4.45066 0.834507 -0.494711 0.0159393 0.0025873 0.0215693 -23.5324 2.50348 10.8314 7.58865
11 C 11 1.47721 5.50368 -0.60694 0.00412332 0.000262738 0.00206433 12.2305 -25.8608 14.7417 7.58865
10 C 10 2.13979 4.12119 -0.547607 -0.00835607 0.00208767 0.00437644 8.55669 7.09034 41.9959 7.58865
9 C 9 2.74387 3.57052 -1.68836 0.0071331 0.00331076 0.000218205 7.05993 -10.044 2.69781 7.58865
8 C 8 3.48882 2.36058 -1.61201 -0.00313814 0.00710471 0.00590304 -7.03757 6.80064 -28.5809 7.58865
7 C 7 3.69564 1.6413 -0.45485 0.00741342 -0.00562785 -9.22231e-05 1.58825 14.0179 3.27907 7.58865
1 O 1 4.1066 3.70697 2.77496 0.00659162 0.000505232 -0.00598793 -66.6661 19.6495 22.7246 7.58865
21 H 21 1.47563 5.46196 1.20993 -0.00212156 0.0118367 -0.000932653 8.4579 -23.3171 27.3927 7.58865
17 H 17 3.25322 1.62632 1.61806 -0.00619667 -0.00851399 0.0204156 -5.42386 8.69954 -11.025 7.58865
16 H 16 2.59637 5.62815 4.17053 -0.00214218 0.0144175 0.0263111 8.967 -7.77323 12.9846 7.58865
15 H 15 1.25357 4.54463 4.15787 0.00130898 -0.00700112 0.00396247 18.223 -2.92889 0.488958 7.58865
14 H 14 2.62922 3.95434 5.05393 0.000705335 -0.0169525 0.00803259 10.4985 8.23318 1.69522 7.58865
13 O 13 1.21629 6.10155 0.605408 0.00529386 0.00234311 0.00448523 -12.1937 25.0404 -49.1401 7.58865
6 C 6 3.05372 2.16466 0.679222 -0.00660144 -0.00893203 -0.00197176 12.2866 -8.39699 34.0214 7.58865
5 C 5 2.38191 3.43466 0.716986 0.00420456 -0.00584058 -0.00170376 -28.3367 6.08136 -17.9701 7.58865
4 O 4 1.94436 3.97598 1.95094 -0.0118363 0.00517207 0.00362446 20.6407 -18.8457 -35.8419 7.58865
3 C 3 2.36967 4.55403 4.18151 -0.00308444 0.00386969 -0.0119784 -56.8418 20.8802 15.6158 7.58865
2 C 2 2.85316 3.98472 2.93195 0.00352794 -0.00588594 -0.00317046 90.1188 -28.5485 -34.3093 7.58865
