21
Lattice="50.0 0.0 0.0 0.0 50.0 0.0 0.0 0.0 50.0" Properties=species:S:1:pos:R:3:velocities:R:3:displacements:R:3:update_velocities:R:3 total_energy=5.86398 timestep=1.0 pbc="T T T"
O       29.01397000      28.71658000      27.85996000       0.00348528      -0.00052626      -0.01022290       0.00477000      -0.00074000      -0.01012000       0.00601416      -0.00095725      -0.01001870
C       27.91130000      29.00081000      27.93156000      -0.00293236      -0.00068457      -0.00068721      -0.00434000      -0.00041000      -0.00026000      -0.00566763      -0.00015804       0.00012724
C       27.34284000      29.54650000      29.26636000       0.00082543      -0.00061082      -0.00586553       0.00124000      -0.00050000      -0.00603000       0.00173596      -0.00040556      -0.00614865
O       27.04406000      28.93766000      26.90638000      -0.00576075       0.00043944       0.00301698      -0.00625000       0.00083000       0.00321000      -0.00673704       0.00122711       0.00342067
C       27.36388000      28.44629000      25.68405400      -0.00452124       0.00474875       0.00578974      -0.00386000       0.00446000       0.00604300      -0.00317800       0.00410865       0.00622607
C       28.11131000      27.26320000      25.70869900      -0.00448846      -0.00798442      -0.00344148      -0.00449000      -0.00866000      -0.00337700      -0.00450971      -0.00929922      -0.00325455
C       28.62998000      26.70754000      24.53002800       0.00548171      -0.00514427       0.00406938       0.00566000      -0.00571000       0.00387400       0.00584479      -0.00622452       0.00364825
C       28.48125000      27.32819000      23.27731000       0.00592145      -0.00174407       0.01133230       0.00550000      -0.00138000       0.01186000       0.00503751      -0.00096729       0.01236780
C       27.71421000      28.50980000      23.28002000       0.00007852       0.00587893       0.00535438      -0.00003000       0.00640000       0.00554000      -0.00007243       0.00685192       0.00565909
C       27.19719000      29.14157000      24.47991100      -0.00311413      -0.00372306      -0.00382873      -0.00308000      -0.00415000      -0.00455300      -0.00311221      -0.00448983      -0.00518573
C       26.47146000      30.44677000      24.39755000      -0.00224881       0.00798160      -0.00198145      -0.00218000       0.00829000      -0.00199000      -0.00207284       0.00852678      -0.00197163
O       26.30644000      31.07800000      23.34821000      -0.00500572      -0.00146561      -0.00320762      -0.00497000      -0.00167000      -0.00322000      -0.00492213      -0.00185454      -0.00325429
O       26.16179000      31.07283000      25.54754200       0.00629798       0.00211792       0.00704519       0.00615000       0.00231000       0.00691800       0.00597487       0.00256612       0.00670721
H       27.81230000      29.09793000      30.19134000      -0.00413549      -0.02428260       0.01355590      -0.00812000      -0.02336000       0.00781000      -0.01230350      -0.02189950       0.00140938
H       26.22961000      29.53544000      29.23174000       0.02083310       0.00503427      -0.02333640       0.02330000       0.00525000      -0.02164000       0.02472610       0.00539044      -0.01990740
H       27.76712000      30.57280000      29.25277000      -0.00939258       0.00546436      -0.03487000      -0.01286000       0.00366000      -0.03379000      -0.01615040       0.00181247      -0.03245230
H       28.28794000      26.68535000      26.64898000       0.00433971      -0.02015280      -0.00085304       0.00288000      -0.01650000      -0.00541000       0.00134818      -0.01267310      -0.01007730
H       29.08448000      25.70113100      24.57803200       0.03751270       0.01629180      -0.02848850       0.03758000       0.01999300      -0.02812500       0.03766100       0.02311850      -0.02743910
H       28.87704000      26.94121000      22.37151000      -0.00469816      -0.00188961       0.01613220      -0.00355000      -0.00391000       0.01366000      -0.00220201      -0.00593648       0.01103290
H       27.54827000      29.02872000      22.35434000       0.02721900       0.01681690       0.00359256       0.02714000       0.01706000       0.00257000       0.02697200       0.01715720       0.00171928
H       26.42201000      30.46392000      26.20649000       0.00348081       0.00901720      -0.02026230       0.00461000       0.00598000      -0.01617000       0.00614224       0.00196473      -0.01101360
21
Lattice="50.0 0.0 0.0 0.0 50.0 0.0 0.0 0.0 50.0" Properties=species:S:1:pos:R:3:velocities:R:3:displacements:R:3:update_velocities:R:3 total_energy=4.40539 timestep=1.0 pbc="T T T"
O       29.01874000      28.71584000      27.84984000       0.00601416      -0.00095725      -0.01001870       0.00714000      -0.00114000      -0.00990000       0.00820089      -0.00129223      -0.00977327
C       27.90696000      29.00040000      27.93130000      -0.00566763      -0.00015804       0.00012724      -0.00682000       0.00002000       0.00045000      -0.00785290       0.00015090       0.00074533
C       27.34408000      29.54600000      29.26033000       0.00173596      -0.00040556      -0.00614865       0.00235000      -0.00035000      -0.00620000       0.00298542      -0.00031782      -0.00623233
O       27.03781000      28.93849000      26.90959000      -0.00673704       0.00122711       0.00342067      -0.00722000       0.00163000       0.00364000      -0.00771591       0.00202989       0.00386472
C       27.36002000      28.45075000      25.69009700      -0.00317800       0.00410865       0.00622607      -0.00245000       0.00362000       0.00626900      -0.00169322       0.00307013       0.00623977
C       28.10682000      27.25454000      25.70532200      -0.00450971      -0.00929922      -0.00325455      -0.00456000      -0.00985000      -0.00306800      -0.00464355      -0.01033740      -0.00287257
C       28.63564000      26.70183000      24.53390200       0.00584479      -0.00622452       0.00364825       0.00601000      -0.00663000       0.00337500       0.00615996      -0.00696408       0.00308258
C       28.48675000      27.32681000      23.28917000       0.00503751      -0.00096729       0.01236780       0.00450000      -0.00046000       0.01280000       0.00392572       0.00008350       0.01317070
C       27.71418000      28.51620000      23.28556000      -0.00007243       0.00685192       0.00565909       0.00000000       0.00716000       0.00566000       0.00013537       0.00740800       0.00559766
C       27.19411000      29.13742000      24.47535800      -0.00311221      -0.00448983      -0.00518573      -0.00324000      -0.00466000      -0.00562300      -0.00340454      -0.00472959      -0.00595395
C       26.46928000      30.45506000      24.39556000      -0.00207284       0.00852678      -0.00197163      -0.00190000       0.00862000      -0.00190400      -0.00170697       0.00863745      -0.00181387
O       26.30147000      31.07633000      23.34499000      -0.00492213      -0.00185454      -0.00325429      -0.00489000      -0.00200000      -0.00330000      -0.00487692      -0.00212702      -0.00335287
O       26.16794000      31.07514000      25.55446000       0.00597487       0.00256612       0.00670721       0.00577000       0.00290000       0.00638800       0.00556030       0.00325284       0.00604406
H       27.80418000      29.07457000      30.19915000      -0.01230350      -0.02189950       0.00140938      -0.01654000      -0.01967000      -0.00566000      -0.02064040      -0.01721490      -0.01276330
H       26.25291000      29.54069000      29.21010000       0.02472610       0.00539044      -0.01990740       0.02408000       0.00537000      -0.01815000       0.02239360       0.00527329      -0.01639670
H       27.75426000      30.57646000      29.21898000      -0.01615040       0.00181247      -0.03245230      -0.01894000       0.00014000      -0.03066000      -0.02141540      -0.00131788      -0.02865940
H       28.29082000      26.66885000      26.64357000       0.00134818      -0.01267310      -0.01007730      -0.00020000      -0.00886000      -0.01439000      -0.00170759      -0.00523990      -0.01824400
H       29.12206000      25.72112400      24.54990700       0.03766100       0.02311850      -0.02743910       0.03786000       0.02493500      -0.02616900       0.03817110       0.02602270      -0.02462660
H       28.87349000      26.93730000      22.38517000      -0.00220201      -0.00593648       0.01103290      -0.00065000      -0.00780000       0.00846000       0.00091170      -0.00947421       0.00608627
H       27.57541000      29.04578000      22.35691000       0.02697200       0.01715720       0.00171928       0.02660000       0.01697000       0.00130000       0.02611610       0.01662740       0.00114160
H       26.42662000      30.46990000      26.19032000       0.00614224       0.00196473      -0.01101360       0.00816000      -0.00320000      -0.00460000       0.01024930      -0.00851971       0.00197726
21
Lattice="50.0 0.0 0.0 0.0 50.0 0.0 0.0 0.0 50.0" Properties=species:S:1:pos:R:3:velocities:R:3:displacements:R:3:update_velocities:R:3 total_energy=2.45945 timestep=1.0 pbc="T T T"
O       29.02588000      28.71470000      27.83994000       0.00820089      -0.00129223      -0.00977327       0.00911000      -0.00141000      -0.00963000       0.00991500      -0.00150235      -0.00947833
C       27.90014000      29.00042000      27.93175000      -0.00785290       0.00015090       0.00074533      -0.00863000       0.00020000       0.00096000      -0.00926895       0.00018842       0.00112919
C       27.34643000      29.54565000      29.25413000       0.00298542      -0.00031782      -0.00623233       0.00363000      -0.00030000      -0.00628000       0.00423560      -0.00027757      -0.00637654
O       27.03059000      28.94012000      26.91323000      -0.00771591       0.00202989       0.00386472      -0.00821000       0.00243000       0.00409000      -0.00868934       0.00283272       0.00431414
C       27.35757000      28.45437000      25.69636600      -0.00169322       0.00307013       0.00623977      -0.00091000       0.00242000       0.00607200      -0.00013476       0.00171017       0.00583641
C       28.10226000      27.24469000      25.70225400      -0.00464355      -0.01033740      -0.00287257      -0.00477000      -0.01068000      -0.00270100      -0.00491303      -0.01095490      -0.00256018
C       28.64165000      26.69520000      24.53727700       0.00615996      -0.00696408       0.00308258       0.00628000      -0.00717000       0.00276700       0.00637896      -0.00731775       0.00244534
C       28.49125000      27.32635000      23.30197000       0.00392572       0.00008350       0.01317070       0.00332000       0.00067000       0.01340000       0.00270224       0.00127986       0.01354730
C       27.71418000      28.52336000      23.29122000       0.00013537       0.00740800       0.00559766       0.00038000       0.00752000       0.00540000       0.00068470       0.00756830       0.00514779
C       27.19087000      29.13276000      24.46973500      -0.00340454      -0.00472959      -0.00595395      -0.00366000      -0.00463000      -0.00607000      -0.00397423      -0.00445873      -0.00607290
C       26.46738000      30.46368000      24.39365600      -0.00170697       0.00863745      -0.00181387      -0.00145000       0.00851000      -0.00168200      -0.00115811       0.00831265      -0.00153056
O       26.29658000      31.07433000      23.34169000      -0.00487692      -0.00212702      -0.00335287      -0.00487000      -0.00221000      -0.00343000      -0.00486978      -0.00228445      -0.00350079
O       26.17371000      31.07804000      25.56084800       0.00556030       0.00325284       0.00604406       0.00537000       0.00358000       0.00571400       0.00519742       0.00384286       0.00541928
H       27.78764000      29.05490000      30.19349000      -0.02064040      -0.01721490      -0.01276330      -0.02413000      -0.01461000      -0.01929000      -0.02716250      -0.01208230      -0.02520880
H       26.27699000      29.54606000      29.19195000       0.02239360       0.00527329      -0.01639670       0.01896000       0.00501000      -0.01467000       0.01482080       0.00466106      -0.01296510
H       27.73532000      30.57660000      29.18832000      -0.02141540      -0.00131788      -0.02865940      -0.02318000      -0.00221000      -0.02624000      -0.02453060      -0.00273701      -0.02361460
H       28.29062000      26.65999000      26.62918000      -0.00170759      -0.00523990      -0.01824400      -0.00301000      -0.00229000      -0.02079000      -0.00416017       0.00016998      -0.02246830
H       29.15992000      25.74605900      24.52373800       0.03817110       0.02602270      -0.02462660       0.03872000       0.02571700      -0.02262000       0.03936920       0.02474540      -0.02040860
H       28.87284000      26.92950000      22.39363000       0.00091170      -0.00947421       0.00608627       0.00237000      -0.01064000       0.00443000       0.00370379      -0.01148110       0.00328529
H       27.60201000      29.06275000      22.35821000       0.02611610       0.01662740       0.00114160       0.02544000       0.01597000       0.00147000       0.02465350       0.01515790       0.00203468
H       26.43478000      30.46670000      26.18572000       0.01024930      -0.00851971       0.00197726       0.01207000      -0.01325000       0.00790000       0.01356370      -0.01722340       0.01304590
21
Lattice="50.0 0.0 0.0 0.0 50.0 0.0 0.0 0.0 50.0" Properties=species:S:1:pos:R:3:velocities:R:3:displacements:R:3:update_velocities:R:3 total_energy=0.475387 timestep=1.0 pbc="T T T"
O       29.03499000      28.71329000      27.83031000       0.00991500      -0.00150235      -0.00947833       0.01054000      -0.00155000      -0.00931000       0.01106330      -0.00157001      -0.00912797
C       27.89151000      29.00062000      27.93271000      -0.00926895       0.00018842       0.00112919      -0.00960000       0.00008000       0.00122000      -0.00976844      -0.00007410       0.00125359
C       27.35006000      29.54535000      29.24785000       0.00423560      -0.00027757      -0.00637654       0.00472000      -0.00024000      -0.00657000       0.00511263      -0.00018097      -0.00681283
O       27.02238000      28.94255000      26.91732000      -0.00868934       0.00283272       0.00431414      -0.00916000       0.00323000       0.00453000      -0.00963518       0.00361026       0.00472340
C       27.35666000      28.45679000      25.70243800      -0.00013476       0.00171017       0.00583641       0.00064000       0.00093000       0.00547800       0.00140477       0.00014076       0.00506149
C       28.09749000      27.23401000      25.69955300      -0.00491303      -0.01095490      -0.00256018      -0.00510000      -0.01107000      -0.00250200      -0.00531262      -0.01108800      -0.00249316
C       28.64793000      26.68803000      24.54004400       0.00637896      -0.00731775       0.00244534       0.00645000      -0.00735000       0.00212400       0.00650066      -0.00733700       0.00180786
C       28.49457000      27.32702000      23.31537000       0.00270224       0.00127986       0.01354730       0.00208000       0.00189000       0.01351000       0.00147647       0.00249777       0.01337140
C       27.71456000      28.53088000      23.29662000       0.00068470       0.00756830       0.00514779       0.00109000       0.00750000       0.00478000       0.00152614       0.00737628       0.00436527
C       27.18721000      29.12813000      24.46366500      -0.00397423      -0.00445873      -0.00607290      -0.00436000      -0.00414000      -0.00586300      -0.00476604      -0.00374804      -0.00554761
C       26.46593000      30.47219000      24.39197400      -0.00115811       0.00831265      -0.00153056      -0.00082000       0.00799000      -0.00134700      -0.00045330       0.00759194      -0.00114792
O       26.29171000      31.07212000      23.33826000      -0.00486978      -0.00228445      -0.00350079      -0.00488000      -0.00232000      -0.00359000      -0.00489678      -0.00233840      -0.00368579
O       26.17908000      31.08162000      25.56656200       0.00519742       0.00384286       0.00541928       0.00509000       0.00398000       0.00523700       0.00501107       0.00404200       0.00512788
H       27.76351000      29.04029000      30.17420000      -0.02716250      -0.01208230      -0.02520880      -0.02909000      -0.01002000      -0.02946000      -0.03036110      -0.00832280      -0.03265100
H       26.29595000      29.55107000      29.17728000       0.01482080       0.00466106      -0.01296510       0.00973000       0.00416000      -0.01130000       0.00440665       0.00357062      -0.00966006
H       27.71214000      30.57439000      29.16208000      -0.02453060      -0.00273701      -0.02361460      -0.02508000      -0.00248000      -0.02064000      -0.02521540      -0.00179884      -0.01750270
H       28.28761000      26.65770000      26.60839000      -0.00416017       0.00016998      -0.02246830      -0.00496000       0.00154000      -0.02226000      -0.00555229       0.00230907      -0.02104220
H       29.19864000      25.77177600      24.50111800       0.03936920       0.02474540      -0.02040860       0.04017000       0.02268300      -0.01786000       0.04098980       0.02019010      -0.01516640
H       28.87521000      26.91886000      22.39806000       0.00370379      -0.01148110       0.00328529       0.00471000      -0.01157000       0.00328000       0.00551241      -0.01124500       0.00390774
H       27.62745000      29.07872000      22.35968000       0.02465350       0.01515790       0.00203468       0.02367000       0.01409000       0.00298000       0.02258980       0.01293420       0.00406969
H       26.44685000      30.45345000      26.19362000       0.01356370      -0.01722340       0.01304590       0.01414000      -0.01908000       0.01600000       0.01414450      -0.01961040       0.01759960
21
Lattice="50.0 0.0 0.0 0.0 50.0 0.0 0.0 0.0 50.0" Properties=species:S:1:pos:R:3:velocities:R:3:displacements:R:3:update_velocities:R:3 total_energy=0.0354467 timestep=1.0 pbc="T T T"
O       29.04553000      28.71174000      27.82100000       0.01106330      -0.00157001      -0.00912797       0.01138000      -0.00154000      -0.00893000       0.01159780      -0.00149030      -0.00871931
C       27.88191000      29.00070000      27.93393000      -0.00976844      -0.00007410       0.00125359      -0.00961000      -0.00033000       0.00120000      -0.00929299      -0.00063560       0.00110508
C       27.35478000      29.54511000      29.24128000       0.00511263      -0.00018097      -0.00681283       0.00528000      -0.00007000      -0.00720000       0.00531504       0.00007659      -0.00766016
O       27.01322000      28.94578000      26.92185000      -0.00963518       0.00361026       0.00472340      -0.01009000       0.00397000       0.00489000      -0.01051510       0.00432494       0.00504091
C       27.35730000      28.45772000      25.70791600       0.00140477       0.00014076       0.00506149       0.00212000      -0.00068000       0.00454900       0.00281423      -0.00149820       0.00399474
C       28.09239000      27.22294000      25.69705100      -0.00531262      -0.01108800      -0.00249316      -0.00555000      -0.01096000      -0.00257800      -0.00579966      -0.01078290      -0.00270313
C       28.65438000      26.68068000      24.54216800       0.00650066      -0.00733700       0.00180786       0.00653000      -0.00725000       0.00150900       0.00656902      -0.00713723       0.00122299
C       28.49665000      27.32891000      23.32888000       0.00147647       0.00249777       0.01337140       0.00090000       0.00308000       0.01304000       0.00033201       0.00364139       0.01262730
C       27.71565000      28.53838000      23.30140000       0.00152614       0.00737628       0.00436527       0.00204000       0.00716000       0.00388000       0.00258040       0.00689224       0.00337100
C       27.18285000      29.12399000      24.45780200      -0.00476604      -0.00374804      -0.00554761      -0.00522000      -0.00325000      -0.00504200      -0.00569225      -0.00271328      -0.00444736
C       26.46511000      30.48018000      24.39062700      -0.00045330       0.00759194      -0.00114792      -0.00005000       0.00709000      -0.00092400       0.00036388       0.00654912      -0.00069014
O       26.28683000      31.06980000      23.33467000      -0.00489678      -0.00233840      -0.00368579      -0.00492000      -0.00233000      -0.00378000      -0.00495094      -0.00230832      -0.00388645
O       26.18417000      31.08560000      25.57179900       0.00501107       0.00404200       0.00512788       0.00501000       0.00393000       0.00516300       0.00504712       0.00373902       0.00526442
H       27.73442000      29.03027000      30.14474000      -0.03036110      -0.00832280      -0.03265100      -0.03033000      -0.00750000      -0.03357000      -0.02963400      -0.00716996      -0.03327110
H       26.30568000      29.55523000      29.16598000       0.00440665       0.00357062      -0.00966006      -0.00084000       0.00284000      -0.00805000      -0.00579236       0.00205659      -0.00647008
H       27.68706000      30.57191000      29.14144000      -0.02521540      -0.00179884      -0.01750270      -0.02459000      -0.00036000      -0.01408000      -0.02361640       0.00141646      -0.01053180
H       28.28265000      26.65924000      26.58613000      -0.00555229       0.00230907      -0.02104220      -0.00576000       0.00194000      -0.01795000      -0.00579040       0.00104545      -0.01399700
H       29.23881000      25.79445900      24.48325800       0.04098980       0.02019010      -0.01516640       0.04168000       0.01716400      -0.01223900       0.04221300       0.01402490      -0.00921270
H       28.87992000      26.90729000      22.40134000       0.00551241      -0.01124500       0.00390774       0.00591000      -0.01012000       0.00572000       0.00612366      -0.00858605       0.00806563
H       27.65112000      29.09281000      22.36266000       0.02258980       0.01293420       0.00406969       0.02132000       0.01166000       0.00530000       0.01997450       0.01035830       0.00650676
H       26.46099000      30.43437000      26.20962000       0.01414450      -0.01961040       0.01759960       0.01300000      -0.01746000       0.01652000       0.01129750      -0.01402380       0.01415330
21
Lattice="50.0 0.0 0.0 0.0 50.0 0.0 0.0 0.0 50.0" Properties=species:S:1:pos:R:3:velocities:R:3:displacements:R:3:update_velocities:R:3 total_energy=1.74396 timestep=1.0 pbc="T T T"
O       29.05691000      28.71020000      27.81207000       0.01159780      -0.00149030      -0.00871931       0.01161000      -0.00139000      -0.00849000       0.01151880      -0.00127104      -0.00825313
C       27.87230000      29.00037000      27.93513000      -0.00929299      -0.00063560       0.00110508      -0.00867000      -0.00103000       0.00092000      -0.00788052      -0.00146346       0.00068261
C       27.36006000      29.54504000      29.23408000       0.00531504       0.00007659      -0.00766016       0.00507000       0.00030000      -0.00824000       0.00469488       0.00056200      -0.00887239
O       27.00313000      28.94975000      26.92674000      -0.01051510       0.00432494       0.00504091      -0.01090000       0.00464000       0.00514000      -0.01127520       0.00492757       0.00521406
C       27.35942000      28.45704000      25.71246500       0.00281423      -0.00149820       0.00399474       0.00342000      -0.00228000       0.00337900       0.00397430      -0.00305184       0.00274171
C       28.08684000      27.21198000      25.69447300      -0.00579966      -0.01078290      -0.00270313      -0.00606000      -0.01051000      -0.00288200      -0.00629650      -0.01019070      -0.00307301
C       28.66091000      26.67343000      24.54367700       0.00656902      -0.00713723       0.00122299       0.00661000      -0.00700000       0.00096400       0.00665065      -0.00684700       0.00072150
C       28.49755000      27.33199000      23.34192000       0.00033201       0.00364139       0.01262730      -0.00019000       0.00416000       0.01206000      -0.00068098       0.00465397       0.01141860
C       27.71769000      28.54554000      23.30528000       0.00258040       0.00689224       0.00337100       0.00315000       0.00655000       0.00285000       0.00374380       0.00619243       0.00232309
C       27.17763000      29.12074000      24.45276000      -0.00569225      -0.00271328      -0.00444736      -0.00617000      -0.00212000      -0.00370400      -0.00664206      -0.00150115      -0.00289649
C       26.46506000      30.48727000      24.38970300       0.00036388       0.00654912      -0.00069014       0.00080000       0.00593000      -0.00043800       0.00123842       0.00528326      -0.00017682
O       26.28191000      31.06747000      23.33089000      -0.00495094      -0.00230832      -0.00388645      -0.00499000      -0.00227000      -0.00399000      -0.00502288      -0.00221904      -0.00407388
O       26.18918000      31.08953000      25.57696200       0.00504712       0.00373902       0.00526442       0.00514000       0.00342000       0.00546200       0.00524956       0.00306117       0.00568503
H       27.70409000      29.02277000      30.11117000      -0.02963400      -0.00716996      -0.03327110      -0.02777000      -0.00779000      -0.03076000      -0.02539300      -0.00885627      -0.02724840
H       26.30484000      29.55807000      29.15793000      -0.00579236       0.00205659      -0.00647008      -0.00973000       0.00116000      -0.00493000      -0.01297480       0.00021927      -0.00341563
H       27.66247000      30.57155000      29.12736000      -0.02361640       0.00141646      -0.01053180      -0.02205000       0.00370000      -0.00678000      -0.02023380       0.00612465      -0.00293204
H       28.27689000      26.66118000      26.56818000      -0.00579040       0.00104545      -0.01399700      -0.00554000      -0.00066000      -0.00877000      -0.00518012      -0.00263214      -0.00311766
H       29.28049000      25.81162300      24.47101900       0.04221300       0.01402490      -0.00921270       0.04225000       0.01096400      -0.00603200       0.04193720       0.00808137      -0.00279017
H       28.88583000      26.89717000      22.40706000       0.00612366      -0.00858605       0.00806563       0.00602000      -0.00639000       0.01122000       0.00580248      -0.00392443       0.01463940
H       27.67244000      29.10447000      22.36796000       0.01997450       0.01035830       0.00650676       0.01848000       0.00911000       0.00755000       0.01692290       0.00792808       0.00842678
H       26.47399000      30.41691000      26.22614000       0.01129750      -0.01402380       0.01415330       0.00875000      -0.00860000       0.00985000       0.00592990      -0.00252938       0.00491760
21
Lattice="50.0 0.0 0.0 0.0 50.0 0.0 0.0 0.0 50.0" Properties=species:S:1:pos:R:3:velocities:R:3:displacements:R:3:update_velocities:R:3 total_energy=4.17287 timestep=1.0 pbc="T T T"
O       29.06852000      28.70881000      27.80358000       0.01151880      -0.00127104      -0.00825313       0.01124000      -0.00111000      -0.00800000       0.01087420      -0.00093141      -0.00773456
C       27.86363000      28.99934000      27.93605000      -0.00788052      -0.00146346       0.00068261      -0.00683000      -0.00197000       0.00036000      -0.00566099      -0.00249541       0.00000002
C       27.36513000      29.54534000      29.22584000       0.00469488       0.00056200      -0.00887239       0.00405000       0.00090000      -0.00955000       0.00329005       0.00127597      -0.01023620
O       26.99223000      28.95439000      26.93188000      -0.01127520       0.00492757       0.00521406      -0.01158000       0.00516000       0.00522000      -0.01185110       0.00536182       0.00519400
C       27.36284000      28.45476000      25.71584400       0.00397430      -0.00305184       0.00274171       0.00441000      -0.00374000       0.00208200       0.00477078      -0.00436828       0.00142374
C       28.08078000      27.20147000      25.69159100      -0.00629650      -0.01019070      -0.00307301      -0.00651000      -0.00985000      -0.00324400      -0.00670480      -0.00952744      -0.00338336
C       28.66752000      26.66643000      24.54464100       0.00665065      -0.00684700       0.00072150       0.00672000      -0.00670000       0.00051200       0.00679951      -0.00655898       0.00032029
C       28.49736000      27.33615000      23.35398000      -0.00068098       0.00465397       0.01141860      -0.00112000       0.00510000       0.01069000      -0.00154160       0.00551370       0.00993837
C       27.72084000      28.55209000      23.30813000       0.00374380       0.00619243       0.00232309       0.00433000       0.00579000       0.00183000       0.00489740       0.00537023       0.00138158
C       27.17146000      29.11862000      24.44905600      -0.00664206      -0.00150115      -0.00289649      -0.00708000      -0.00088000      -0.00199400      -0.00749358      -0.00027203      -0.00105850
C       26.46586000      30.49320000      24.38926500       0.00123842       0.00528326      -0.00017682       0.00168000       0.00460000       0.00009700       0.00210948       0.00390823       0.00037566
O       26.27692000      31.06520000      23.32690000      -0.00502288      -0.00221904      -0.00407388      -0.00506000      -0.00216000      -0.00415000      -0.00510132      -0.00209864      -0.00421463