ITEM: TIMESTEP
0
ITEM: NUMBER OF ATOMS
12
ITEM: BOX BOUNDS pp pp pp
-1.0000000000000000e+01 1.0000000000000000e+01
-1.0000000000000000e+01 1.0000000000000000e+01
-1.0000000000000000e+01 1.0000000000000000e+01
ITEM: ATOMS id type x y z vx vy vz fx fy fz
1 1 4 4 3 -0.00388752 0.00401447 0.0056706 -16.4803 0.117645 -16.4803
2 1 2.605 4 3 -0.00466272 -0.0064824 -0.00577198 -16.3873 -0.189978 -16.3873
3 1 1.909 4 4.20854 0.00465306 0.000835667 0.00524212 -0.288814 0.119069 -0.288814
4 1 2.608 4 5.41533 0.00488296 -0.00237783 -0.00393465 16.0503 0.1193 16.0503
5 1 4.003 4 5.4118 -0.0017104 0.00348748 0.00613239 21.8278 -0.191881 21.8278
6 1 4.696 4 4.20856 -0.0032204 -0.00230125 -0.00598954 -5.13891 0.120125 -5.13891
7 2 4.543 4.00119 2.05842 -0.0090392 -0.0149005 0.0160088 4.03147 -0.0845961 4.03147
8 2 2.063 3.99881 2.05843 -0.0115537 0.0181081 -0.011563 3.76196 0.122408 3.76196
9 2 0.822 4.00119 4.20854 0.0202167 0.0189497 -0.00856497 0.161033 -0.0851818 0.161033
10 2 2.066 4.00119 6.35699 0.0069701 0.00028305 -0.0133534 -3.65252 -0.0848749 -3.65252
11 2 4.548 3.99881 6.35208 0.0193527 -0.00752642 0.0212009 -3.87786 0.123121 -3.87786
12 2 5.783 4.00119 4.20856 0.0210608 0.0187341 -0.0198018 -0.00678491 -0.0851568 -0.00678491
ITEM: TIMESTEP
1
ITEM: NUMBER OF ATOMS
12
ITEM: BOX BOUNDS pp pp pp
-1.0000000000000000e+01 1.0000000000000000e+01
-1.0000000000000000e+01 1.0000000000000000e+01
-1.0000000000000000e+01 1.0000000000000000e+01
ITEM: ATOMS id type x y z vx vy vz fx fy fz
1 1 3.99961 4.0004 3.00056 -0.00230554 0.0041249 0.00658196 -17.0039 -0.344365 -17.0039
2 1 2.60453 3.99935 2.99942 -0.00303074 -0.00576478 -0.00685691 -15.9081 0.214381 -15.9081
3 1 1.90946 4.00008 4.20906 0.00457603 0.00132781 0.00353809 -1.82785 0.1504 -1.82785
4 1 2.60849 3.99976 5.41494 0.00335037 -0.00241084 -0.00484528 16.5273 0.197378 16.5273
5 1 4.00283 4.00035 5.41242 -0.00335675 0.0028016 0.0070753 22.0581 -0.484361 22.0581
6 1 4.69568 3.99977 4.20796 -0.00313742 -0.00287309 -0.00425763 -3.58892 0.502957 -3.58892
7 2 4.54209 3.9997 2.06003 -0.00663234 -0.0145167 0.0176683 3.29735 0.129549 3.29735
8 2 2.06185 4.00062 2.05728 -0.00894837 0.019356 -0.0131276 4.27582 -0.0664375 4.27582
9 2 0.824031 4.00308 4.20768 0.0204739 0.019934 -0.0116989 0.416287 -0.173597 0.416287
10 2 2.0667 4.00122 6.35565 0.00410989 -0.000220239 -0.0151487 -3.05407 -0.0880796 -3.05407
11 2 4.54993 3.99806 6.35419 0.0168041 -0.00889014 0.0225834 -5.29854 0.247024 -5.29854
12 2 5.7851 4.00306 4.20658 0.020456 0.0175592 -0.0165504 0.106436 -0.284849 0.106436
ITEM: TIMESTEP
2
ITEM: NUMBER OF ATOMS
12
ITEM: BOX BOUNDS pp pp pp
-1.0000000000000000e+01 1.0000000000000000e+01
-1.0000000000000000e+01 1.0000000000000000e+01
-1.0000000000000000e+01 1.0000000000000000e+01
ITEM: ATOMS id type x y z vx vy vz fx fy fz
1 1 3.99938 4.00081 3.00122 -0.00238663 0.00414029 0.00652813 -17.5276 -0.799973 -17.5276
2 1 2.60423 3.99878 2.99873 -0.00318355 -0.0058606 -0.00693008 -15.3919 0.62029 -15.3919
3 1 1.90992 4.00022 4.20942 0.00450818 0.00132679 0.00365572 -3.39935 0.183362 -3.39935
4 1 2.60882 3.99952 5.41446 0.00334058 -0.00236663 -0.00476199 17.0037 0.268471 17.0037
5 1 4.0025 4.00063 5.41313 -0.00335287 0.00286708 0.00724436 22.2644 -0.780251 22.2644
6 1 4.69537 3.99948 4.20753 -0.00305471 -0.00276898 -0.00414543 -2.0204 0.887717 -2.0204
7 2 4.54142 3.99825 2.0618 -0.00659969 -0.0145889 0.0175621 2.55278 0.339805 2.55278
8 2 2.06096 4.00256 2.05598 -0.00928662 0.0191093 -0.0127569 4.78504 -0.257144 4.78504
9 2 0.826086 4.00508 4.20651 0.0207909 0.020173 -0.0118632 0.671044 -0.259993 0.671044
10 2 2.06712 4.0012 6.35413 0.00406809 -0.000177951 -0.0156288 -2.44843 -0.0881679 -2.44843
11 2 4.5516 3.99717 6.35644 0.0168959 -0.00892185 0.022441 -6.70952 0.374017 -6.70952
12 2 5.78713 4.00482 4.20492 0.0202803 0.0177007 -0.0167061 0.220303 -0.488132 0.220303
