12
Lattice="20.0 0.0 0.0 0.0 20.0 0.0 0.0 0.0 20.0" Properties=species:S:1:pos:R:3:velocities:R:3:forces:R:3 pbc="T T T"
C        8.32797000       1.40568000       4.59508000       0.00443161       0.00860862       0.01087600      -3.05655000       4.87703000     -14.29740000
C        7.79346000       0.33002500       3.83054000       0.00023283       0.00594370       0.00105774     -32.01500000     -18.30850000      27.39410000
C        6.49318000      19.77572800       4.21191000       0.00184737      -0.00760697      -0.00090672      24.29630000      41.88880000       8.83962000
C        5.67220000       0.40282100       5.23297000       0.00235007       0.00825425       0.00784718      25.29720000     -33.80830000     -33.01880000
C        6.26497000       1.40739000       6.00255000       0.01006660      -0.00445501      -0.00620977      42.40600000      11.74310000     -18.28930000
C        7.59974000       1.90698000       5.73835000       0.00454898      -0.00148834      -0.00791884     -15.98210000     -27.70340000     -16.73720000
H        9.27663000       1.81821000       4.16436000       0.00063478       0.00906706       0.02937910     -18.25810000      -7.01232000      29.26870000
H        8.41354000      19.84813200       3.05083000      -0.00595919      -0.00607634      -0.00573750     -13.96540000      11.23840000       8.95746000
H        6.15689000      18.90842000       3.69243000       0.00890938      -0.00542084       0.00891403      -8.87789000      -6.47181000      -6.24389000
H        4.66549000       0.01554440       5.45703000       0.00228336      -0.03549750      -0.02598990      14.28930000       5.78122000      -1.30638000
H        5.70666000       1.79491000       6.78920000       0.02364220      -0.02150960      -0.02503750     -12.86240000      12.51680000      24.55410000
H        8.03592000       2.61796000       6.43152000       0.02249880       0.03513100      -0.03454980      -1.27141000       5.25887000      -9.12090000
12
Lattice="20.0 0.0 0.0 0.0 20.0 0.0 0.0 0.0 20.0" Properties=species:S:1:pos:R:3:velocities:R:3:forces:R:3 pbc="T T T"
C        8.32841000       1.40654000       4.59617000       0.00430418       0.00864458       0.01090740      -3.41748000       3.27994000     -15.73860000
C        7.79347000       0.33061600       3.83065000       0.00012243       0.00588150       0.00119509     -31.66190000     -18.54510000      27.32460000
C        6.49337000      19.77497400       4.21183000       0.00203659      -0.00741042      -0.00081497      24.37620000      43.67520000      10.17640000
C        5.67244000       0.40364000       5.23375000       0.00249657       0.00819331       0.00772644      25.08180000     -36.48810000     -35.29020000
C        6.26598000       1.40694000       6.00193000       0.01020680      -0.00439465      -0.00632162      43.12680000      11.89680000     -18.64030000
C        7.60019000       1.90683000       5.73756000       0.00452083      -0.00158205      -0.00798928     -15.59430000     -25.97300000     -15.19610000
H        9.27666000       1.81910000       4.16736000      -0.00006365       0.00891050       0.03105480     -17.68060000      -6.75114000      28.81080000
H        8.41292000      19.84754800       3.05028000      -0.00602022      -0.00568128      -0.00553421     -14.03870000      11.59280000       9.33100000
H        6.15776000      18.90787000       3.69330000       0.00870933      -0.00589253       0.00886354      -9.10885000      -6.95527000      -6.57491000
H        4.66575000       0.01200660       5.45443000       0.00281006      -0.03534310      -0.02570570      14.75140000       6.57089000      -0.83825600
H        5.70900000       1.79279000       6.78675000       0.02289180      -0.02089420      -0.02393920     -13.86190000      13.37390000      26.05830000
H        8.03816000       2.62148000       6.42804000       0.02214840       0.03543070      -0.03536600      -1.97264000       4.32294000      -9.42271000
12
Lattice="20.0 0.0 0.0 0.0 20.0 0.0 0.0 0.0 20.0" Properties=species:S:1:pos:R:3:velocities:R:3:forces:R:3 pbc="T T T"
C        8.32884000       1.40741000       4.59725000       0.00419231       0.00860761       0.01075980      -3.83576000       1.65043000     -17.14170000
C        7.79348000       0.33120100       3.83077000      -0.00001031       0.00579658       0.00130489     -31.27920000     -18.75180000      27.25380000
C        6.49358000      19.77424100       4.21175000       0.00213307      -0.00737576      -0.00080871      24.41060000      45.38370000      11.47490000
C        5.67269000       0.40445300       5.23452000       0.00246972       0.00809105       0.00754779      24.87530000     -39.14070000     -37.53600000
C        6.26701000       1.40650000       6.00129000       0.01033020      -0.00428091      -0.00638817      43.76260000      12.08110000     -18.90190000
C        7.60064000       1.90666000       5.73676000       0.00438137      -0.00155307      -0.00791632     -15.20790000     -24.22860000     -13.66880000
H        9.27662000       1.81998000       4.17052000      -0.00112849       0.00857413       0.03236400     -17.03710000      -6.46392000      28.30960000
H        8.41229000      19.84700400       3.04974000      -0.00656143      -0.00515453      -0.00504176     -14.10570000      11.93510000       9.69439000
H        6.15861000      18.90726000       3.69418000       0.00819185      -0.00620068       0.00810465      -9.31874000      -7.39382000      -6.88028000
H        4.66606000       0.00848595       5.45186000       0.00341539      -0.03528370      -0.02575730      15.20010000       7.35521000      -0.37099800
H        5.71126000       1.79072000       6.78441000       0.02241790      -0.02036240      -0.02282630     -14.79690000      14.18550000      27.47120000
H        8.04038000       2.62504000       6.42449000       0.02200130       0.03550580      -0.03608480      -2.66733000       3.38772000      -9.70433000
12
Lattice="20.0 0.0 0.0 0.0 20.0 0.0 0.0 0.0 20.0" Properties=species:S:1:pos:R:3:velocities:R:3:forces:R:3 pbc="T T T"
C        8.32926000       1.40827000       4.59833000       0.00413770       0.00870707       0.01071760      -4.34704000       0.00017159     -18.46760000
C        7.79347000       0.33177700       3.83091000      -0.00008404       0.00574409       0.00134146     -30.90170000     -18.92690000      27.20470000
C        6.49379000      19.77351100       4.21167000       0.00229940      -0.00731456      -0.00069190      24.39880000      47.02560000      12.73480000
C        5.67294000       0.40525600       5.23527000       0.00253506       0.00792621       0.00746819      24.71120000     -41.75600000     -39.76140000
C        6.26805000       1.40608000       6.00065000       0.01042080      -0.00413575      -0.00649883      44.30710000      12.27780000     -19.08870000
C        7.60108000       1.90650000       5.73596000       0.00428493      -0.00165285      -0.00788400     -14.79710000     -22.49360000     -12.19620000
H        9.27647000       1.82082000       4.17382000      -0.00184015       0.00853256       0.03362180     -16.30770000      -6.14246000      27.76070000
H        8.41160000      19.84651300       3.04926000      -0.00774334      -0.00462629      -0.00473471     -14.14260000      12.24990000      10.01890000
H        6.15941000      18.90663000       3.69497000       0.00808575      -0.00628889       0.00747926      -9.50423000      -7.78313000      -7.15288000
H        4.66643000       0.00497285       5.44928000       0.00441524      -0.03500370      -0.02568390      15.61670000       8.13002000       0.10161100
H        5.71347000       1.78872000       6.78218000       0.02165690      -0.01952990      -0.02158100     -15.67790000      14.95720000      28.80520000
H        8.04257000       2.62859000       6.42086000       0.02189690       0.03562590      -0.03630280      -3.35547000       2.46132000      -9.95930000
12
Lattice="20.0 0.0 0.0 0.0 20.0 0.0 0.0 0.0 20.0" Properties=species:S:1:pos:R:3:velocities:R:3:forces:R:3 pbc="T T T"
C        8.32967000       1.40914000       4.59940000       0.00406605       0.00873084       0.01058970      -4.92346000      -1.68291000     -19.75400000
C        7.79346000       0.33234800       3.83105000      -0.00018246       0.00562366       0.00147925     -30.54810000     -19.05160000      27.20410000
C        6.49403000      19.77278800       4.21160000       0.00243713      -0.00722218      -0.00067603      24.35640000      48.61280000      13.95760000
C        5.67320000       0.40604100       5.23600000       0.00245881       0.00784416       0.00740211      24.60710000     -44.32150000     -41.96950000
C        6.26910000       1.40567000       6.00000000       0.01056630      -0.00395803      -0.00659903      44.75210000      12.49680000     -19.18080000
C        7.60150000       1.90634000       5.73517000       0.00426399      -0.00170524      -0.00794175     -14.35970000     -20.73350000     -10.73600000
H        9.27625000       1.82166000       4.17724000      -0.00260570       0.00827110       0.03492040     -15.51570000      -5.79618000      27.17560000
H        8.41080000      19.84607600       3.04881000      -0.00817952      -0.00383785      -0.00452231     -14.13150000      12.53140000      10.29200000
H        6.16020000      18.90598000       3.69571000       0.00798697      -0.00641583       0.00709724      -9.67529000      -8.13946000      -7.40137000
H        4.66690000       0.00148936       5.44671000       0.00468154      -0.03462320      -0.02574130      15.97660000       8.88309000       0.58315000
H        5.71560000       1.78680000       6.78008000       0.02114010      -0.01913820      -0.02042980     -16.49020000      15.67880000      30.04020000
H        8.04475000       2.63216000       6.41721000       0.02157390       0.03530070      -0.03683450      -4.04849000       1.52228000     -10.21100000
12
Lattice="20.0 0.0 0.0 0.0 20.0 0.0 0.0 0.0 20.0" Properties=species:S:1:pos:R:3:velocities:R:3:forces:R:3 pbc="T T T"
C        8.33008000       1.41001000       4.60045000       0.00402741       0.00866340       0.01043460      -5.57075000      -3.39377000     -20.98800000
C        7.79344000       0.33290700       3.83120000      -0.00022489       0.00560101       0.00158246     -30.18760000     -19.13400000      27.21800000
C        6.49428000      19.77207400       4.21153000       0.00246300      -0.00709105      -0.00063849      24.26970000      50.15200000      15.16520000
C        5.67345000       0.40681800       5.23674000       0.00242692       0.00774564       0.00719443      24.54300000     -46.85080000     -44.16720000
C        6.27016000       1.40527000       5.99933000       0.01072700      -0.00383575      -0.00661153      45.10830000      12.72440000     -19.20000000
C        7.60193000       1.90616000       5.73438000       0.00418432      -0.00182167      -0.00791779     -13.92060000     -18.98150000      -9.31078000
H        9.27596000       1.82248000       4.18079000      -0.00349214       0.00757159       0.03583800     -14.65360000      -5.42153000      26.55010000
H        8.40995000      19.84571800       3.04837000      -0.00929871      -0.00331870      -0.00399484     -14.09650000      12.78510000      10.53520000
H        6.16098000      18.90532000       3.69640000       0.00778766      -0.00694946       0.00673319      -9.83407000      -8.46869000      -7.63315000
H        4.66741000      19.99804547       5.44414000       0.00550471      -0.03438170      -0.02583850      16.31500000       9.62578000       1.06910000
H        5.71768000       1.78491000       6.77810000       0.02075070      -0.01872900      -0.01930300     -17.24600000      16.36300000      31.19590000
H        8.04690000       2.63570000       6.41350000       0.02148460       0.03530710      -0.03751190      -4.72683000       0.59998200     -10.43450000
12
Lattice="20.0 0.0 0.0 0.0 20.0 0.0 0.0 0.0 20.0" Properties=species:S:1:pos:R:3:velocities:R:3:forces:R:3 pbc="T T T"
C        8.33048000       1.41088000       4.60149000       0.00399914       0.00860933       0.01039830      -6.29832000      -5.12712000     -22.15970000
C        7.79341000       0.33346400       3.83136000      -0.00039040       0.00555718       0.00180599     -29.87150000     -19.18560000      27.27120000
C        6.49453000      19.77137400       4.21147000       0.00245463      -0.00679892      -0.00046680      24.16000000      51.62260000      16.32810000
C        5.67370000       0.40758400       5.23745000       0.00249430       0.00747316       0.00706006      24.53440000     -49.32300000     -46.33570000
C        6.27124000       1.40489000       5.99867000       0.01084530      -0.00389334      -0.00673163      45.37430000      12.95200000     -19.15870000
C        7.60234000       1.90598000       5.73358000       0.00412339      -0.00190552      -0.00789707     -13.45340000     -17.22330000      -7.92494000
H        9.27558000       1.82322000       4.18443000      -0.00381244       0.00753694       0.03680500     -13.71260000      -5.01040000      25.88680000
H        8.40899000      19.84541300       3.04800000      -0.00988509      -0.00289294      -0.00371306     -14.01110000      13.00250000      10.72320000
H        6.16174000      18.90461000       3.69706000       0.00763126      -0.00711248       0.00632802      -9.97306000      -8.74882000      -7.83591000
H        4.66799000      19.99462728       5.44156000       0.00638786      -0.03390300      -0.02567760      16.60350000      10.34910000       1.56357000
H        5.71972000       1.78308000       6.77624000       0.02028300      -0.01817530      -0.01810470     -17.95120000      17.01160000      32.27910000
H        8.04904000       2.63923000       6.40973000       0.02115550       0.03493340      -0.03821800      -5.40101000      -0.31954500     -10.63700000
12
Lattice="20.0 0.0 0.0 0.0 20.0 0.0 0.0 0.0 20.0" Properties=species:S:1:pos:R:3:velocities:R:3:forces:R:3 pbc="T T T"
C        8.33088000       1.41174000       4.60253000       0.00396485       0.00867597       0.01025110      -7.06013000      -6.86319000     -23.29320000
C        7.79336000       0.33401600       3.83155000      -0.00056989       0.00554986       0.00194172     -29.54970000     -19.20940000      27.33100000
C        6.49478000      19.77070300       4.21143000       0.00252016      -0.00665148      -0.00036797      24.03060000      53.00620000      17.43210000
C        5.67395000       0.40832300       5.23815000       0.00255224       0.00733901       0.00688020      24.56650000     -51.72510000     -48.46460000
C        6.27234000       1.40450000       5.99799000       0.01106570      -0.00382930      -0.00691851      45.55760000      13.20640000     -19.03040000
C        7.60275000       1.90578000       5.73279000       0.00413613      -0.00202949      -0.00786500     -12.98570000     -15.48630000      -6.58810000
H        9.27517000       1.82396000       4.18816000      -0.00420203       0.00730674       0.03826000     -12.73900000      -4.58850000      25.20220000
H        8.40797000      19.84515100       3.04765000      -0.01009960      -0.00237944      -0.00340123     -13.90660000      13.20110000      10.88870000
H        6.16248000      18.90388000       3.69767000       0.00725838      -0.00763529       0.00627785     -10.09600000      -8.98688000      -8.01217000
H        4.66866000      19.99125847       5.43900000       0.00686816      -0.03394730      -0.02568500      16.83810000      11.04550000       2.06369000
H        5.72171000       1.78129000       6.77449000       0.01935410      -0.01705130      -0.01669100     -18.59720000      17.61510000      33.27400000
H        8.05114000       2.64272000       6.40588000       0.02082590       0.03501910      -0.03843020      -6.05865000      -1.21482000     -10.80310000
12
Lattice="20.0 0.0 0.0 0.0 20.0 0.0 0.0 0.0 20.0" Properties=species:S:1:pos:R:3:velocities:R:3:forces:R:3 pbc="T T T"
C        8.33128000       1.41260000       4.60355000       0.00388381       0.00869073       0.01018470      -7.87979000      -8.61844000     -24.37240000
C        7.79330000       0.33456800       3.83175000      -0.00064516       0.00546418       0.00206915     -29.20830000     -19.20630000      27.39060000
C        6.49503000      19.77004700       4.21140000       0.00249628      -0.00645177      -0.00034756      23.86660000      54.31370000      18.49310000
C        5.67421000       0.40904800       5.23883000       0.00255187       0.00712324       0.00666153      24.61500000     -54.08900000     -50.56200000
C        6.27345000       1.40412000       5.99730000       0.01123630      -0.00371825      -0.00694172      45.61780000      13.50070000     -18.77770000
C        7.60316000       1.90558000       5.73200000       0.00413503      -0.00211143      -0.00791667     -12.49830000     -13.73360000      -5.27446000
H        9.27472000       1.82469000       4.19204000      -0.00484433       0.00725050       0.03915300     -11.71130000      -4.14471000      24.48230000
H        8.40693000      19.84494000       3.04733000      -0.01020540      -0.00201019      -0.00262635     -13.79070000      13.38200000      11.03620000
H        6.16318000      18.90310000       3.69829000       0.00666091      -0.00789409       0.00614706     -10.19720000      -9.17905000      -8.16306000
H        4.66938000      19.98788670       5.43643000       0.00804283      -0.03314620      -0.02594040      17.05570000      11.73680000       2.56548000
H        5.72361000       1.77962000       6.77289000       0.01880490      -0.01648110      -0.01533130     -19.15570000      18.15520000      34.14360000
H        8.05321000       2.64622000       6.40202000       0.02024660       0.03464670      -0.03894900      -6.71381000      -2.11714000     -10.96170000
12
Lattice="20.0 0.0 0.0 0.0 20.0 0.0 0.0 0.0 20.0" Properties=species:S:1:pos:R:3:velocities:R:3:forces:R:3 pbc="T T T"
C        8.33166000       1.41347000       4.60456000       0.00387627       0.00862304       0.01003020      -8.74352000     -10.39150000     -25.42190000
C        7.79323000       0.33511100       3.83196000      -0.00080015       0.00535661       0.00210271     -28.87230000     -19.16930000      27.47650000
C        6.49529000      19.76941100       4.21136000       0.00258637      -0.00620964      -0.00039954      23.68020000      55.54930000      19.51040000
C        5.67447000       0.40975100       5.23948000       0.00268083       0.00693169       0.00653139      24.75230000     -56.35810000     -52.62600000
C        6.27458000       1.40375000       5.99660000       0.01134980      -0.00356682      -0.00703349      45.58180000      13.79970000     -18.45350000
C        7.60358000       1.90536000       5.73121000       0.00407660      -0.00216214      -0.00795775     -12.02090000     -11.99260000      -3.99147000
H        9.27421000       1.82540000       4.19600000      -0.00572570       0.00677332       0.04030540     -10.63490000      -3.68303000      23.73810000
H        8.40588000      19.84476700       3.04709000      -0.01070230      -0.00122313      -0.00175524     -13.65260000      13.53770000      11.14730000
H        6.16383000      18.90229000       3.69888000       0.00643750      -0.00849488       0.00541338     -10.27840000      -9.33332000      -8.29362000
H        4.67022000      19.98459640       5.43384000       0.00865714      -0.03279650      -0.02610410      17.18720000      12.38670000       3.08178000
H        5.72545000       1.77801000       6.77143000       0.01771860      -0.01555500      -0.01375790     -19.65090000      18.65100000      34.92190000
H        8.05523000       2.64968000       6.39810000       0.02012390       0.03423380      -0.03940480      -7.34815000      -2.99650000     -11.08930000
12
Lattice="20.0 0.0 0.0 0.0 20.0 0.0 0.0 0.0 20.0" Properties=species:S:1:pos:R:3:velocities:R:3:forces:R:3 pbc="T T T"
C        8.33205000       1.41433000       4.60556000       0.00391140       0.00870183       0.01002140      -9.69620000     -12.19300000     -26.41430000
C        7.79315000       0.33564300       3.83218000      -0.00088223       0.00519585       0.00221371     -28.54220000     -19.06990000      27.61010000
C        6.49555000      19.76880000       4.21133000       0.00269100      -0.00601352      -0.00051563      23.44770000      56.68070000      20.47410000
C        5.67474000       0.41043400       5.24013000       0.00273531       0.00667117       0.00628654      24.92070000     -58.57170000     -54.66400000
C        6.27572000       1.40340000       5.99589000       0.01153640      -0.00345181      -0.00718296      45.43060000      14.13030000     -18.01510000
C        7.60398000       1.90514000       5.73041000       0.00402253      -0.00223803      -0.00796867     -11.52990000     -10.26130000      -2.74651000
H        9.27362000       1.82607000       4.20008000      -0.00614145       0.00681764       0.04130430      -9.47821000      -3.18869000      22.95560000
H        8.40479000      19.84467300       3.04694000      -0.01098430      -0.00047217      -0.00138888     -13.47270000      13.64940000      11.19700000
H        6.16445000      18.90142000       3.69941000       0.00615639      -0.00871611       0.00539306     -10.33360000      -9.42042000      -8.38356000
H        4.67113000      19.98134250       5.43124000       0.00953866      -0.03236270      -0.02566270      17.28570000      13.01910000       3.60310000
H        5.72718000       1.77650000       6.77013000       0.01713910      -0.01453600      -0.01237210     -20.05920000      19.08630000      35.57670000
H        8.05722000       2.65310000       6.39414000       0.01978730       0.03426650      -0.04001130      -7.97271000      -3.86084000     -11.19320000
12
Lattice="20.0 0.0 0.0 0.0 20.0 0.0 0.0 0.0 20.0" Properties=species:S:1:pos:R:3:velocities:R:3:forces:R:3 pbc="T T T"
C        8.33244000       1.41520000       4.60656000       0.00372403       0.00876671       0.00996026     -10.70120000     -14.02510000     -27.38410000
C        7.79305000       0.33616000       3.83240000      -0.00100989       0.00508696       0.00229599     -28.19520000     -18.91030000      27.76820000
C        6.49582000      19.76820800       4.21128000       0.00278170      -0.00585504      -0.00039697      23.17780000      57.74690000      21.41560000
C        5.67502000       0.41109100       5.24075000       0.00279106       0.00654255       0.00603870      25.14620000     -60.71010000     -56.66080000
C        6.27689000       1.40306000       5.99517000       0.01172020      -0.00333649      -0.00721186      45.16780000      14.47790000     -17.48090000
C        7.60438000       1.90492000       5.72962000       0.00391136      -0.00232853      -0.00808339     -11.02200000      -8.52275000      -1.53083000
H        9.27298000       1.82675000       4.20426000      -0.00668393       0.00666301       0.04250230      -8.27987000      -2.67845000      22.15150000
H        8.40366000      19.84465400       3.04682000      -0.01153000       0.00039595      -0.00081313     -13.26940000      13.73100000      11.21310000
H        6.16504000      18.90053000       3.69993000       0.00582172      -0.00879720       0.00469705     -10.37460000      -9.48164000      -8.46196000
H        4.67212000      19.97813320       5.42868000       0.01015370      -0.03190280      -0.02554860      17.33480000      13.62450000       4.12414000
H        5.72885000       1.77508000       6.76897000       0.01591050      -0.01391940      -0.01081290     -20.39430000      19.46720000      36.12300000
H        8.05918000       2.65652000       6.39011000       0.01967810       0.03421740      -0.04070270      -8.58993000      -4.71917000     -11.27690000
12
Lattice="20.0 0.0 0.0 0.0 20.0 0.0 0.0 0.0 20.0" Properties=species:S:1:pos:R:3:velocities:R:3:forces:R:3 pbc="T T T"
C        8.33281000       1.41607000       4.60755000       0.00369952       0.00878644       0.00987968     -11.74540000     -15.88520000     -28.33250000
C        7.79295000       0.33666500       3.83264000      -0.00110680       0.00494135       0.00241756     -27.85760000     -18.69200000      27.97150000
C        6.49610000      19.76763300       4.21124000       0.00282107      -0.00552887      -0.00029150      22.87770000      58.73440000      22.30090000
C        5.67530000       0.41173500       5.24134000       0.00282415       0.00631318       0.00588947      25.40720000     -62.78460000     -58.61020000
C        6.27807000       1.40273000       5.99445000       0.01202200      -0.00326249      -0.00726125      44.77670000      14.84420000     -16.84330000
C        7.60477000       1.90468000       5.72881000       0.00382869      -0.00228861      -0.00804512     -10.49830000      -6.76720000      -0.32585200
H        9.27230000       1.82741000       4.20856000      -0.00722580       0.00695616       0.04331720      -7.03672000      -2.14919000      21.32240000
H        8.40248000      19.84472200       3.04676000      -0.01245920       0.00089558      -0.00088134     -13.02950000      13.77350000      11.17840000
H        6.16561000      18.89963000       3.70038000       0.00533010      -0.00919431       0.00401746     -10.39720000      -9.50097000      -8.51185000
H        4.67317000      19.97497120       5.42613000       0.01095600      -0.03156360      -0.02536050      17.34900000      14.21050000       4.64487000
H        5.73040000       1.77373000       6.76796000       0.01499940      -0.01308920      -0.00941713     -20.64190000      19.79190000      36.54930000
H        8.06113000       2.65993000       6.38602000       0.01919610       0.03426630      -0.04115800      -9.20401000      -5.57535000     -11.34360000
12
Lattice="20.0 0.0 0.0 0.0 20.0 0.0 0.0 0.0 20.0" Properties=species:S:1:pos:R:3:velocities:R:3:forces:R:3 pbc="T T T"
C        8.33318000       1.41695000       4.60853000       0.00357554       0.00863952       0.00976085     -12.83120000     -17.75380000     -29.24720000
C        7.79283000       0.33715600       3.83288000      -0.00122093       0.00496164       0.00243212     -27.51910000     -18.42790000      28.19300000
C        6.49639000      19.76709000       4.21122000       0.00282247      -0.00527441      -0.00030124      22.53830000      59.60770000      23.11850000
C        5.67559000       0.41235500       5.24192000       0.00293096       0.00607487       0.00569444      25.72240000     -64.78100000     -60.51330000
C        6.27928000       1.40240000       5.99372000       0.01222560      -0.00317537      -0.00730411      44.25350000      15.22750000     -16.10140000
C        7.60515000       1.90445000       5.72800000       0.00381727      -0.00240059      -0.00804795      -9.95009000      -5.01611000       0.83945600
H        9.27156000       1.82810000       4.21293000      -0.00800236       0.00708350       0.04404410      -5.75778000      -1.60944000      20.47460000
H        8.40121000      19.84484000       3.04670000      -0.01300870       0.00184232      -0.00018963     -12.76300000      13.79320000      11.11730000
H        6.16612000      18.89869000       3.70077000       0.00497474      -0.00930437       0.00394153     -10.39210000      -9.45232000      -8.52103000
H        4.67430000      19.97184430       5.42361000       0.01164200      -0.03095810      -0.02517480      17.31550000      14.77240000       5.16823000
H        5.73186000       1.77246000       6.76709000       0.01393110      -0.01235530      -0.00769303     -20.80860000      20.06170000      36.86240000
H        8.06303000       2.66334000       6.38188000       0.01895290       0.03401800      -0.04115770      -9.80787000      -6.42183000     -11.39050000
12
Lattice="20.0 0.0 0.0 0.0 20.0 0.0 0.0 0.0 20.0" Properties=species:S:1:pos:R:3:velocities:R:3:forces:R:3 pbc="T T T"
C        8.33353000       1.41781000       4.60950000       0.00354886       0.00858478       0.00960800     -13.95190000     -19.61390000     -30.12270000
C        7.79271000       0.33764900       3.83313000      -0.00120886       0.00491434       0.00249447     -27.20910000     -18.12520000      28.45530000
C        6.49668000      19.76657300       4.21119000       0.00285847      -0.00503890      -0.00011359      22.18440000      60.41600000      23.89670000
C        5.67589000       0.41295100       5.24248000       0.00296980       0.00589976       0.00551607      26.07610000     -66.69910000     -62.36970000
C        6.28051000       1.40209000       5.99299000       0.01235570      -0.00314032      -0.00729848      43.60580000      15.63420000     -15.24790000
C        7.60553000       1.90421000       5.72720000       0.00374742      -0.00233811      -0.00795104      -9.38727000      -3.25793000       1.99044000
H        9.27075000       1.82880000       4.21738000      -0.00797158       0.00680043       0.04461110      -4.43575000      -1.05753000      19.60780000
H        8.39988000      19.84505300       3.04670000      -0.01340310       0.00246943      -0.00014679     -12.45580000      13.77130000      10.99810000
H        6.16659000      18.89774000       3.70114000       0.00433173      -0.00982660       0.00377247     -10.37380000      -9.37653000      -8.51691000
H        4.67550000      19.96877920       5.42110000       0.01205030      -0.03072190      -0.02498410      17.24060000      15.30760000       5.69243000
H        5.73321000       1.77127000       6.76640000       0.01333300      -0.01163180      -0.00618734     -20.88540000      20.27100000      37.04870000
H        8.06491000       2.66673000       6.37774000       0.01854690       0.03343760      -0.04123200     -10.40790000      -7.26990000     -11.43230000
12