ITEM: TIMESTEP
0
ITEM: NUMBER OF ATOMS
12
ITEM: BOX BOUNDS pp pp pp
-1.0000000000000000e+01 1.0000000000000000e+01
-1.0000000000000000e+01 1.0000000000000000e+01
-1.0000000000000000e+01 1.0000000000000000e+01
ITEM: ATOMS id type x y z vx vy vz fx fy fz
1 1 4 4 3 -0.00388752 0.00401447 0.0056706 8.79495 0.117645 -16.4803
2 1 2.605 4 3 -0.00466272 -0.0064824 -0.00577198 -8.68983 -0.189978 -16.3873
3 1 1.909 4 4.20854 0.00465306 0.000835667 0.00524212 -19.5571 0.119069 -0.288814
4 1 2.608 4 5.41533 0.00488296 -0.00237783 -0.00393465 -9.16248 0.1193 16.0503
5 1 4.003 4 5.4118 -0.0017104 0.00348748 0.00613239 6.323 -0.191881 21.8278
6 1 4.696 4 4.20856 -0.0032204 -0.00230125 -0.00598954 22.6137 0.120125 -5.13891
7 2 4.543 4.00119 2.05842 -0.0090392 -0.0149005 0.0160088 -2.1671 -0.0845961 4.03147
8 2 2.063 3.99881 2.05843 -0.0115537 0.0181081 -0.011563 1.88908 0.122408 3.76196
9 2 0.822 4.00119 4.20854 0.0202167 0.0189497 -0.00856497 4.62644 -0.0851818 0.161033
10 2 2.066 4.00119 6.35699 0.0069701 0.00028305 -0.0133534 2.19592 -0.0848749 -3.65252
11 2 4.548 3.99881 6.35208 0.0193527 -0.00752642 0.0212009 -2.24476 0.123121 -3.87786
12 2 5.783 4.00119 4.20856 0.0210608 0.0187341 -0.0198018 -4.62183 -0.0851568 -0.00678491
ITEM: TIMESTEP
1
ITEM: NUMBER OF ATOMS
12
ITEM: BOX BOUNDS pp pp pp
-1.0000000000000000e+01 1.0000000000000000e+01
-1.0000000000000000e+01 1.0000000000000000e+01
-1.0000000000000000e+01 1.0000000000000000e+01
ITEM: ATOMS id type x y z vx vy vz fx fy fz
1 1 3.99961 4.0004 3.00056 -0.00387066 0.00398651 0.00567917 7.93174 -0.344365 -17.0039
2 1 2.60453 3.99935 2.99942 -0.00459696 -0.00642231 -0.00595018 -8.8327 0.214381 -15.9081
3 1 1.90946 4.00008 4.20906 0.00457823 0.000809976 0.00534595 -18.7648 0.1504 -1.82785
4 1 2.60849 3.99976 5.41494 0.00491648 -0.00227182 -0.00394382 -9.2407 0.197378 16.5273
5 1 4.00283 4.00035 5.41242 -0.00179412 0.00345829 0.00616836 8.31216 -0.484361 22.0581
6 1 4.69568 3.99977 4.20796 -0.00313654 -0.00235522 -0.00606289 24.3903 0.502957 -3.58892
7 2 4.54209 3.9997 2.06003 -0.00941691 -0.014763 0.0160622 -1.72894 0.129549 3.29735
8 2 2.06185 4.00062 2.05728 -0.0117369 0.0181866 -0.0115175 2.21972 -0.0664375 4.27582
9 2 0.824031 4.00308 4.20768 0.0204732 0.0190121 -0.00848443 3.47699 -0.173597 0.416287
10 2 2.0667 4.00122 6.35565 0.00689539 2.69616e-05 -0.0135451 1.86681 -0.0880796 -3.05407
11 2 4.54993 3.99806 6.35419 0.0195889 -0.00772002 0.0209677 -3.23311 0.247024 -5.29854
12 2 5.7851 4.00306 4.20658 0.0204538 0.0184817 -0.0197695 -6.39747 -0.284849 0.106436
ITEM: TIMESTEP
2
ITEM: NUMBER OF ATOMS
12
ITEM: BOX BOUNDS pp pp pp
-1.0000000000000000e+01 1.0000000000000000e+01
-1.0000000000000000e+01 1.0000000000000000e+01
-1.0000000000000000e+01 1.0000000000000000e+01
ITEM: ATOMS id type x y z vx vy vz fx fy fz
1 1 3.99923 4.0008 3.00113 -0.00396065 0.00398834 0.00560209 7.06269 -0.800277 -17.5285
2 1 2.60407 3.99871 2.99882 -0.00475873 -0.00648483 -0.00604014 -8.99788 0.619442 -15.3906
3 1 1.90992 4.00016 4.2096 0.00450709 0.000854762 0.00545004 -17.935 0.182592 -3.3971
4 1 2.60898 3.99954 5.41455 0.00490899 -0.00221603 -0.00387733 -9.33005 0.268682 17.0048
5 1 4.00265 4.00069 5.41304 -0.00178792 0.00348856 0.00631415 10.3253 -0.77914 22.2631
6 1 4.69537 3.99953 4.20735 -0.00305716 -0.00229882 -0.00597719 26.1043 0.88861 -2.02371
7 2 4.54115 3.99822 2.06164 -0.00939758 -0.0148585 0.0159302 -1.27984 0.339842 2.55296
8 2 2.06068 4.00244 2.05614 -0.0120883 0.0179998 -0.011161 2.5536 -0.256894 4.78467
9 2 0.826086 4.00499 4.20684 0.020787 0.0193333 -0.00865719 2.30766 -0.259883 0.670722
10 2 2.06739 4.00122 6.35429 0.00686029 9.06275e-05 -0.0140395 1.53659 -0.0881962 -2.4486
11 2 4.55188 3.99729 6.35628 0.0196873 -0.0078138 0.0207995 -4.22494 0.373648 -6.70905
12 2 5.78713 4.00491 4.2046 0.0202751 0.0185389 -0.0199567 -8.12254 -0.488426 0.221325
ITEM: TIMESTEP
3
ITEM: NUMBER OF ATOMS
12
ITEM: BOX BOUNDS pp pp pp
-1.0000000000000000e+01 1.0000000000000000e+01
-1.0000000000000000e+01 1.0000000000000000e+01
-1.0000000000000000e+01 1.0000000000000000e+01
ITEM: ATOMS id type x y z vx vy vz fx fy fz
1 1 3.99883 4.0012 3.00169 -0.00383868 0.00406213 0.0056187 6.20377 -1.25418 -18.0459
2 1 2.60359 3.99806 2.99822 -0.00473318 -0.00644327 -0.00596796 -9.15298 1.02636 -14.8384
3 1 1.91036 4.00025 4.21014 0.00443117 0.000924059 0.00552337 -17.0742 0.213924 -4.98238
4 1 2.60947 3.99931 5.41416 0.00490657 -0.002262 -0.00383262 -9.4068 0.338836 17.4539
5 1 4.00248 4.00104 5.41367 -0.00176525 0.00335061 0.00633569 12.3376 -1.07764 22.4412
6 1 4.69507 3.9993 4.20676 -0.00296303 -0.00226688 -0.00593508 27.7819 1.27865 -0.477238
7 2 4.5402 3.99674 2.06324 -0.00946426 -0.0148834 0.015823 -0.836986 0.54812 1.81709
8 2 2.05948 4.00424 2.05503 -0.0120392 0.0180568 -0.0111536 2.88201 -0.448385 5.27467
9 2 0.828169 4.00692 4.20597 0.0209107 0.0193262 -0.00878211 1.11465 -0.344715 0.927776
10 2 2.06808 4.00123 6.35288 0.00675313 0.000310402 -0.0143374 1.19257 -0.0875845 -1.8123
11 2 4.55384 3.99651 6.35834 0.0189339 -0.0077778 0.020456 -5.21268 0.50364 -8.1009
12 2 5.78914 4.00676 4.20261 0.0201246 0.018651 -0.0202744 -9.82893 -0.697027 0.342533
ITEM: TIMESTEP
4
ITEM: NUMBER OF ATOMS
12
ITEM: BOX BOUNDS pp pp pp
-1.0000000000000000e+01 1.0000000000000000e+01
-1.0000000000000000e+01 1.0000000000000000e+01
-1.0000000000000000e+01 1.0000000000000000e+01
ITEM: ATOMS id type x y z vx vy vz fx fy fz
1 1 3.99845 4.0016 3.00225 -0.00381474 0.00407975 0.00544639 5.33262 -1.70655 -18.5637
2 1 2.60312 3.99742 2.99762 -0.00485915 -0.00643337 -0.00614775 -9.30504 1.43605 -14.2888
3 1 1.9108 4.00034 4.21069 0.00440832 0.00093478 0.00556101 -16.1948 0.239608 -6.5729
4 1 2.60996 3.99909 5.41378 0.00491945 -0.00227468 -0.0036703 -9.47937 0.410369 17.883
5 1 4.0023 4.00138 5.41431 -0.00167427 0.00336463 0.00637341 14.3175 -1.37519 22.5782
6 1 4.69478 3.99908 4.20616 -0.00290811 -0.00227027 -0.00596801 29.443 1.67218 1.05969
7 2 4.53926 3.99525 2.06483 -0.00930647 -0.0145911 0.0158502 -0.393841 0.755085 1.08596
8 2 2.05828 4.00604 2.05393 -0.0114869 0.018243 -0.0111828 3.21326 -0.64208 5.76956
9 2 0.830263 4.00885 4.2051 0.0209494 0.01917 -0.00890283 -0.0883767 -0.424764 1.18517
10 2 2.06876 4.00126 6.35144 0.00690259 0.000812098 -0.0145565 0.842992 -0.0884979 -1.15979
11 2 4.55573 3.99573 6.36037 0.0189083 -0.00797247 0.0201927 -6.17019 0.634536 -9.44839
12 2 5.79113 4.00863 4.20058 0.0194621 0.0189065 -0.0202207 -11.5177 -0.910749 0.471905
ITEM: TIMESTEP
5
ITEM: NUMBER OF ATOMS
12
ITEM: BOX BOUNDS pp pp pp
-1.0000000000000000e+01 1.0000000000000000e+01
-1.0000000000000000e+01 1.0000000000000000e+01
-1.0000000000000000e+01 1.0000000000000000e+01
ITEM: ATOMS id type x y z vx vy vz fx fy fz
1 1 3.99807 4.00201 3.00279 -0.00377964 0.00406752 0.00540981 4.45257 -2.15368 -19.0609
2 1 2.60263 3.99677 2.997 -0.00484738 -0.00647983 -0.00620099 -9.41998 1.84836 -13.7008
3 1 1.91124 4.00044 4.21125 0.00434857 0.00089002 0.0054313 -15.3106 0.258856 -8.16815
4 1 2.61045 3.99886 5.41342 0.00489474 -0.00225455 -0.00370983 -9.53489 0.486576 18.2723
5 1 4.00214 4.00171 5.41495 -0.00167362 0.00339324 0.00636456 16.2782 -1.67941 22.69
6 1 4.69449 3.99885 4.20556 -0.00270028 -0.00230694 -0.00603189 31.0445 2.07183 2.58776
7 2 4.53832 3.99379 2.06641 -0.00917592 -0.0148936 0.0156703 0.0496897 0.958416 0.34936
8 2 2.05714 4.00787 2.05282 -0.0113666 0.0178584 -0.0109909 3.52263 -0.838472 6.24016
9 2 0.832357 4.01077 4.20421 0.0207657 0.0188599 -0.00867186 -1.29129 -0.499072 1.44318
10 2 2.06945 4.00134 6.34998 0.00681161 0.000976745 -0.0140887 0.480202 -0.0931647 -0.482538
11 2 4.5576 3.99493 6.36237 0.018778 -0.00780251 0.0196627 -7.11677 0.770503 -10.7733
12 2 5.79305 4.01052 4.19856 0.0186144 0.0185773 -0.0203832 -13.1543 -1.13074 0.602915
ITEM: TIMESTEP
6
ITEM: NUMBER OF ATOMS
12
ITEM: BOX BOUNDS pp pp pp
-1.0000000000000000e+01 1.0000000000000000e+01
-1.0000000000000000e+01 1.0000000000000000e+01
-1.0000000000000000e+01 1.0000000000000000e+01
ITEM: ATOMS id type x y z vx vy vz fx fy fz
1 1 3.99769 4.00242 3.00332 -0.00366993 0.00409128 0.00538169 3.58497 -2.59986 -19.5682
2 1 2.60214 3.99613 2.99638 -0.00485881 -0.00652797 -0.00614622 -9.52617 2.26053 -13.1003
3 1 1.91167 4.00053 4.21179 0.00438737 0.000860982 0.00543353 -14.434 0.273399 -9.74393
4 1 2.61093 3.99863 5.41305 0.00492416 -0.00231613 -0.00373157 -9.60588 0.563945 18.6859
5 1 4.00197 4.00205 5.41559 -0.00158038 0.00342265 0.00637028 18.2307 -1.98418 22.7545
6 1 4.69423 3.99862 4.20496 -0.00249826 -0.00235962 -0.00604913 32.5505 2.47321 4.11851
7 2 4.53741 3.99231 2.06798 -0.009075 -0.0147698 0.0154932 0.484589 1.16036 -0.374079
8 2 2.05601 4.00965 2.05174 -0.0111597 0.0179714 -0.0108408 3.82449 -1.03498 6.69509
9 2 0.834431 4.01265 4.20334 0.0208351 0.0191658 -0.00887534 -2.4807 -0.568718 1.69439
10 2 2.07014 4.00144 6.34857 0.00671991 0.0010346 -0.0146134 0.132795 -0.0984812 0.162111
11 2 4.55947 3.99415 6.36432 0.018241 -0.00769442 0.0193191 -8.04764 0.907407 -12.0616
12 2 5.79489 4.01237 4.19652 0.0176596 0.018484 -0.0206204 -14.7137 -1.35263 0.737684
ITEM: TIMESTEP
7
ITEM: NUMBER OF ATOMS
12
ITEM: BOX BOUNDS pp pp pp
-1.0000000000000000e+01 1.0000000000000000e+01
-1.0000000000000000e+01 1.0000000000000000e+01
-1.0000000000000000e+01 1.0000000000000000e+01
ITEM: ATOMS id type x y z vx vy vz fx fy fz
1 1 3.99733 4.00283 3.00386 -0.00356906 0.00400338 0.00537176 2.71416 -3.04436 -20.0795
2 1 2.60166 3.99547 2.99576 -0.00478305 -0.00660709 -0.00608967 -9.6086 2.67629 -12.4968
3 1 1.91211 4.00061 4.21233 0.00436377 0.000914575 0.00548102 -13.5626 0.286389 -11.319
4 1 2.61142 3.9984 5.41268 0.00490132 -0.00230709 -0.00358061 -9.66184 0.641967 19.0741
5 1 4.00182 4.0024 5.41623 -0.00152899 0.00344987 0.00649392 20.1546 -2.29292 22.7777
6 1 4.69399 3.99839 4.20436 -0.00232805 -0.00242978 -0.00601542 33.965 2.87832 5.64467
7 2 4.5365 3.99083 2.06953 -0.00899317 -0.014287 0.0153461 0.913618 1.35956 -1.087
8 2 2.0549 4.01145 2.05067 -0.0109733 0.0177156 -0.0102698 4.11904 -1.23348 7.1409
9 2 0.83651 4.01457 4.20246 0.0205782 0.0191655 -0.00887718 -3.66748 -0.636838 1.94616
10 2 2.07081 4.00154 6.34711 0.00657006 0.00107402 -0.0144313 -0.224499 -0.103472 0.831487
11 2 4.56127 3.99339 6.36622 0.0174803 -0.00795544 0.0188462 -8.95273 1.04587 -13.3104
12 2 5.79662 4.01422 4.19446 0.0167334 0.0182942 -0.020411 -16.1886 -1.57733 0.877709
ITEM: TIMESTEP
8
ITEM: NUMBER OF ATOMS
12
ITEM: BOX BOUNDS pp pp pp
-1.0000000000000000e+01 1.0000000000000000e+01
-1.0000000000000000e+01 1.0000000000000000e+01
-1.0000000000000000e+01 1.0000000000000000e+01
ITEM: ATOMS id type x y z vx vy vz fx fy fz
1 1 3.99697 4.00323 3.00439 -0.00355759 0.00401424 0.00529816 1.84946 -3.47974 -20.5927
2 1 2.60118 3.99481 2.99515 -0.00481043 -0.00659496 -0.00612335 -9.67702 3.0921 -11.8601
3 1 1.91254 4.0007 4.21288 0.00424058 0.00098021 0.00550462 -12.7036 0.294061 -12.8875
4 1 2.61191 3.99817 5.41233 0.00492238 -0.00228049 -0.00345543 -9.71888 0.721273 19.4567
5 1 4.00167 4.00274 5.41689 -0.00142178 0.0033237 0.00651293 22.0376 -2.60855 22.7346
6 1 4.69376 3.99814 4.20376 -0.00227833 -0.00232692 -0.00601536 35.2894 3.28549 7.17693
7 2 4.5356 3.98941 2.07106 -0.00908234 -0.0145812 0.0152218 1.33778 1.55192 -1.79054
8 2 2.05381 4.01321 2.04965 -0.0113646 0.0176573 -0.0102934 4.3986 -1.43114 7.55557
9 2 0.83856 4.01648 4.20158 0.0205506 0.0190614 -0.00872779 -4.83249 -0.701382 2.19601
10 2 2.07146 4.00165 6.34567 0.00653588 0.00135321 -0.0141865 -0.577393 -0.108575 1.49434
11 2 4.563 3.99259 6.36808 0.0170541 -0.00767759 0.0178085 -9.81997 1.18832 -14.5011
12 2 5.79826 4.01604 4.19242 0.0160544 0.01844 -0.0205057 -17.5835 -1.80377 1.01764
ITEM: TIMESTEP
9
ITEM: NUMBER OF ATOMS
12
ITEM: BOX BOUNDS pp pp pp
-1.0000000000000000e+01 1.0000000000000000e+01
-1.0000000000000000e+01 1.0000000000000000e+01
-1.0000000000000000e+01 1.0000000000000000e+01
ITEM: ATOMS id type x y z vx vy vz fx fy fz
1 1 3.99661 4.00363 3.00492 -0.00342554 0.00401702 0.00527062 0.983167 -3.91392 -21.1007
2 1 2.60069 3.99415 2.99453 -0.00495985 -0.00653995 -0.00607343 -9.76038 3.50968 -11.2266
3 1 1.91297 4.0008 4.21343 0.00427113 0.00092674 0.00535695 -11.8252 0.296136 -14.4462
4 1 2.6124 3.99794 5.41198 0.0049611 -0.00224515 -0.00334554 -9.78089 0.80027 19.8339
5 1 4.00153 4.00307 5.41754 -0.00132778 0.00325944 0.00673113 23.8676 -2.91787 22.6164
6 1 4.69354 3.99791 4.20316 -0.0021609 -0.0023843 -0.00601879 36.5589 3.69229 8.69708
7 2 4.5347 3.98795 2.07258 -0.00921071 -0.0145948 0.0151433 1.76155 1.74402 -2.49127
8 2 2.05268 4.01498 2.04864 -0.0111841 0.0177833 -0.00992595 4.6897 -1.63089 7.98102
9 2 0.840605 4.01839 4.20071 0.0206634 0.0189816 -0.00853406 -6.00006 -0.760768 2.44251
10 2 2.07212 4.00178 6.34425 0.00664252 0.0012954 -0.0141214 -0.924603 -0.114609 2.14792
11 2 4.56469 3.99183 6.36983 0.01667 -0.00797701 0.0172422 -10.6442 1.32888 -15.6146
12 2 5.79983 4.01788 4.19037 0.0155935 0.0186354 -0.0206432 -18.9257 -2.03322 1.16061
